DF-ISE text

Info {
  version   = 1.0
  type      = xyplot
  datasets  = [
    "time"
    "PIX7 OuterVoltage" "PIX7 InnerVoltage" "PIX7 QuasiFermiPotential" "PIX7 DisplacementCurrent" "PIX7 eCurrent"
    "PIX7 hCurrent" "PIX7 TotalCurrent" "PIX7 Charge" "BACK OuterVoltage" "BACK InnerVoltage"
    "BACK QuasiFermiPotential" "BACK DisplacementCurrent" "BACK eCurrent" "BACK hCurrent" "BACK TotalCurrent"
    "BACK Charge" "PIX8 OuterVoltage" "PIX8 InnerVoltage" "PIX8 QuasiFermiPotential" "PIX8 DisplacementCurrent"
    "PIX8 eCurrent" "PIX8 hCurrent" "PIX8 TotalCurrent" "PIX8 Charge" "PIX9 OuterVoltage"
    "PIX9 InnerVoltage" "PIX9 QuasiFermiPotential" "PIX9 DisplacementCurrent" "PIX9 eCurrent" "PIX9 hCurrent"
    "PIX9 TotalCurrent" "PIX9 Charge" "PIX1 OuterVoltage" "PIX1 InnerVoltage" "PIX1 QuasiFermiPotential"
    "PIX1 DisplacementCurrent" "PIX1 eCurrent" "PIX1 hCurrent" "PIX1 TotalCurrent" "PIX1 Charge"
    "PIX2 OuterVoltage" "PIX2 InnerVoltage" "PIX2 QuasiFermiPotential" "PIX2 DisplacementCurrent" "PIX2 eCurrent"
    "PIX2 hCurrent" "PIX2 TotalCurrent" "PIX2 Charge" "PIX3 OuterVoltage" "PIX3 InnerVoltage"
    "PIX3 QuasiFermiPotential" "PIX3 DisplacementCurrent" "PIX3 eCurrent" "PIX3 hCurrent" "PIX3 TotalCurrent"
    "PIX3 Charge" "PIX4 OuterVoltage" "PIX4 InnerVoltage" "PIX4 QuasiFermiPotential" "PIX4 DisplacementCurrent"
    "PIX4 eCurrent" "PIX4 hCurrent" "PIX4 TotalCurrent" "PIX4 Charge" "PIX5 OuterVoltage"
    "PIX5 InnerVoltage" "PIX5 QuasiFermiPotential" "PIX5 DisplacementCurrent" "PIX5 eCurrent" "PIX5 hCurrent"
    "PIX5 TotalCurrent" "PIX5 Charge" "PIX6 OuterVoltage" "PIX6 InnerVoltage" "PIX6 QuasiFermiPotential"
    "PIX6 DisplacementCurrent" "PIX6 eCurrent" "PIX6 hCurrent" "PIX6 TotalCurrent" "PIX6 Charge" ]
  functions = [
    Time
    OuterVoltage InnerVoltage QuasiFermiPotential DisplacementCurrent eCurrent
    hCurrent TotalCurrent Charge OuterVoltage InnerVoltage
    QuasiFermiPotential DisplacementCurrent eCurrent hCurrent TotalCurrent
    Charge OuterVoltage InnerVoltage QuasiFermiPotential DisplacementCurrent
    eCurrent hCurrent TotalCurrent Charge OuterVoltage
    InnerVoltage QuasiFermiPotential DisplacementCurrent eCurrent hCurrent
    TotalCurrent Charge OuterVoltage InnerVoltage QuasiFermiPotential
    DisplacementCurrent eCurrent hCurrent TotalCurrent Charge
    OuterVoltage InnerVoltage QuasiFermiPotential DisplacementCurrent eCurrent
    hCurrent TotalCurrent Charge OuterVoltage InnerVoltage
    QuasiFermiPotential DisplacementCurrent eCurrent hCurrent TotalCurrent
    Charge OuterVoltage InnerVoltage QuasiFermiPotential DisplacementCurrent
    eCurrent hCurrent TotalCurrent Charge OuterVoltage
    InnerVoltage QuasiFermiPotential DisplacementCurrent eCurrent hCurrent
    TotalCurrent Charge OuterVoltage InnerVoltage QuasiFermiPotential
    DisplacementCurrent eCurrent hCurrent TotalCurrent Charge ]
}

Data {
      0.00000000000000E+00
      0.00000000000000E+00   0.00000000000000E+00   0.00000000000000E+00  -7.41639767642022E-30  -1.53131048027052E-19
     -4.31859537534063E-15  -4.31874850638866E-15  -3.17924148555976E-15   2.00000000000000E+02   2.00000000000000E+02
      0.00000000000000E+00   3.37528498695747E-26  -3.83381106431234E-11   5.55818061006622E-11   1.72436954575388E-11
      1.68177494282920E-14   0.00000000000000E+00   0.00000000000000E+00   0.00000000000000E+00  -1.07125744214959E-29
     -1.53722664892220E-19  -4.81527078308231E-15  -4.81542450574721E-15  -3.20780957579879E-15   0.00000000000000E+00
      0.00000000000000E+00   0.00000000000000E+00   6.75056997391493E-27  -1.71999968914495E-11  -1.05034289609497E-14
     -1.72105003204104E-11   7.07088673081416E-15   0.00000000000000E+00   0.00000000000000E+00   0.00000000000000E+00
      2.88415465194120E-30  -7.62087392901926E-20  -2.46869454736120E-15  -2.46877075610049E-15  -1.61914747595537E-15
      0.00000000000000E+00   0.00000000000000E+00   0.00000000000000E+00  -1.64808837253783E-30  -1.53788914581493E-19
     -4.32533135810606E-15  -4.32548514702064E-15  -3.17225982985196E-15   0.00000000000000E+00   0.00000000000000E+00
      0.00000000000000E+00  -1.07125744214959E-29  -1.53740597260605E-19  -4.31529881004926E-15  -4.31545255064653E-15
     -3.17675365052508E-15   0.00000000000000E+00   0.00000000000000E+00   0.00000000000000E+00  -8.24044186268913E-30
     -1.53731158912797E-19  -4.31641513268356E-15  -4.31656886384248E-15  -3.17760403665464E-15   0.00000000000000E+00
      0.00000000000000E+00   0.00000000000000E+00  -1.31847069803026E-29  -1.89248307215442E-19  -4.31692432986247E-15
     -4.31711357816970E-15  -3.17799024863341E-15   0.00000000000000E+00   0.00000000000000E+00   0.00000000000000E+00
     -1.23606627940337E-29  -1.53132060281153E-19  -4.31742008837359E-15  -4.31757322043388E-15  -3.17836422924232E-15
      1.00000000000000E-13
      0.00000000000000E+00   0.00000000000000E+00   0.00000000000000E+00   3.76375432469551E-07  -1.53109558240947E-19
      2.31694821411256E-06   2.69332364658196E-06  -3.17897215318919E-15   2.00000000000000E+02   2.00000000000000E+02
      0.00000000000000E+00  -1.97603240980352E-04   2.03991410373234E-04   1.58221064330850E-13   6.38816955110223E-06
      1.68183882435227E-14   0.00000000000000E+00   0.00000000000000E+00   0.00000000000000E+00   2.11978560335238E-07
     -1.53687160982976E-19   4.09468637248270E-06   4.30666493281778E-06  -3.20737890899494E-15   0.00000000000000E+00
      0.00000000000000E+00   0.00000000000000E+00  -2.11314107748894E-04  -1.62065301767853E-11  -4.39179046696854E-06
     -2.15705914422392E-04   7.04931614422259E-15   0.00000000000000E+00   0.00000000000000E+00   0.00000000000000E+00
     -3.12878255156933E-05  -7.58498861171911E-20   2.16406599836328E-04   1.85118774320635E-04  -1.60063560660785E-15
      0.00000000000000E+00   0.00000000000000E+00   0.00000000000000E+00   1.38433902663196E-05  -1.53706258091643E-19
      1.87701140800974E-06   1.57204016743292E-05  -3.17068778685294E-15   0.00000000000000E+00   0.00000000000000E+00
      0.00000000000000E+00   2.98450662225737E-06  -1.53728032342685E-19  -7.60399346855213E-07   2.22410727540201E-06
     -3.17653123876450E-15   0.00000000000000E+00   0.00000000000000E+00   0.00000000000000E+00   1.29624853243542E-06
     -1.53722855584031E-19  -1.56353423813184E-07   1.13989510862208E-06  -3.17749004668147E-15   0.00000000000000E+00
      0.00000000000000E+00   0.00000000000000E+00   7.42773055123193E-07  -1.89236633814349E-19   7.72286323375014E-07
      1.51505937849802E-06  -3.17783874248233E-15   0.00000000000000E+00   0.00000000000000E+00   0.00000000000000E+00
      4.96984996075387E-07  -1.53116971581529E-19   1.44626469039136E-06   1.94324968646660E-06  -3.17816990417202E-15
      2.00000000000000E-13
      0.00000000000000E+00   0.00000000000000E+00   0.00000000000000E+00  -7.43978747536036E-08  -1.53135745261271E-19
     -7.32935834928749E-07  -8.07333709682506E-07  -3.17905288644186E-15   2.00000000000000E+02   2.00000000000000E+02
      0.00000000000000E+00  -1.92127297414396E-05   1.84702572583520E-05   1.48526499276849E-13  -7.42472334561134E-07
      1.68183139945649E-14   0.00000000000000E+00   0.00000000000000E+00   0.00000000000000E+00  -9.84892654843138E-08
     -1.53720648332133E-19   1.59525502611116E-07   6.10362371266487E-08  -3.20737280476410E-15   0.00000000000000E+00
      0.00000000000000E+00   0.00000000000000E+00  -4.44399915699348E-08  -1.62428740850222E-11  -2.75544849283603E-06
     -2.79990472728005E-06   7.04903615409017E-15   0.00000000000000E+00   0.00000000000000E+00   0.00000000000000E+00
     -4.43547877772451E-06  -7.72691054597242E-20   4.79852145231235E-05   4.35497357453989E-05  -1.59628064649447E-15
      0.00000000000000E+00   0.00000000000000E+00   0.00000000000000E+00  -6.93385614308221E-07  -1.53935768498509E-19
     -2.54876318973402E-05  -2.61810175116485E-05  -3.17330587865697E-15   0.00000000000000E+00   0.00000000000000E+00
      0.00000000000000E+00  -1.45604118734873E-07  -1.53780007477401E-19  -6.79807094720866E-06  -6.94367506594369E-06
     -3.17722560391197E-15   0.00000000000000E+00   0.00000000000000E+00   0.00000000000000E+00  -6.62513596118629E-08
     -1.53747872670036E-19  -3.00781491546964E-06  -3.07406627508166E-06  -3.17779745229750E-15   0.00000000000000E+00
      0.00000000000000E+00   0.00000000000000E+00  -5.92693961216603E-08  -1.89259104339760E-19  -1.79585439944335E-06
     -1.85512379556520E-06  -3.17802425434490E-15   0.00000000000000E+00   0.00000000000000E+00   0.00000000000000E+00
     -6.19645685025644E-08  -1.53139468238525E-19  -1.14521399414939E-06  -1.20717856265210E-06  -3.17829062174329E-15
      3.00000000000000E-13
      0.00000000000000E+00   0.00000000000000E+00   0.00000000000000E+00   7.67440137057645E-09  -1.53133677279792E-19
     -4.56784942907344E-07  -4.49110541536921E-07  -3.17909779729471E-15   2.00000000000000E+02   2.00000000000000E+02
      0.00000000000000E+00  -6.13293433888839E-06   6.12922904795301E-06   1.44224193581718E-13  -3.70514671118678E-09
      1.68183136223258E-14   0.00000000000000E+00   0.00000000000000E+00   0.00000000000000E+00  -5.58805993480204E-10
     -1.53721331789491E-19   1.04976242807902E-07   1.04417436814268E-07  -3.20736236223101E-15   0.00000000000000E+00
      0.00000000000000E+00   0.00000000000000E+00  -2.36421858804304E-09  -1.62546925724265E-11  -1.64142050898653E-06
     -1.64380098226714E-06   7.04887177107134E-15   0.00000000000000E+00   0.00000000000000E+00   0.00000000000000E+00
     -5.55220163886616E-07  -7.74517549374895E-20   2.58505504414002E-05   2.52953302775135E-05  -1.59375113015050E-15
      0.00000000000000E+00   0.00000000000000E+00   0.00000000000000E+00   2.31126688251660E-07  -1.53864610455836E-19
     -1.68302129059664E-05  -1.65990862177149E-05  -3.17496577259676E-15   0.00000000000000E+00   0.00000000000000E+00
      0.00000000000000E+00   8.27092074369733E-08  -1.53755038709964E-19  -3.70788092833672E-06  -3.62517172089990E-06
     -3.17758811789841E-15   0.00000000000000E+00   0.00000000000000E+00   0.00000000000000E+00   3.88604798889762E-08
     -1.53736430414825E-19  -1.56939047677715E-06  -1.53052999688833E-06  -3.17795050394398E-15   0.00000000000000E+00
      0.00000000000000E+00   0.00000000000000E+00   2.27240712250075E-08  -1.89252366793578E-19  -9.41946142769065E-07
     -9.19222071544247E-07  -3.17811617584162E-15   0.00000000000000E+00   0.00000000000000E+00   0.00000000000000E+00
      1.36281402901276E-08  -1.53135578740452E-19  -6.42749177033120E-07  -6.29121036743145E-07  -3.17835353344017E-15
      4.00000000000000E-13
      0.00000000000000E+00   0.00000000000000E+00   0.00000000000000E+00   4.65680666631816E-09  -1.53132408431702E-19
     -2.88039710142335E-07  -2.83382903476170E-07  -3.17912613532463E-15   2.00000000000000E+02   2.00000000000000E+02
      0.00000000000000E+00  -3.34519569958102E-06   3.49919357891651E-06   1.41679917059595E-13   1.53998021015405E-07
      1.68183290204035E-14   0.00000000000000E+00   0.00000000000000E+00   0.00000000000000E+00  -3.62967606497031E-10
     -1.53721699123601E-19   7.61260848305764E-08   7.57631172239256E-08  -3.20735478501328E-15   0.00000000000000E+00
      0.00000000000000E+00   0.00000000000000E+00  -3.00075650845538E-09  -1.62658168664493E-11  -9.95790468207007E-07
     -9.98807490532329E-07   7.04877188525538E-15   0.00000000000000E+00   0.00000000000000E+00   0.00000000000000E+00
     -2.54635692745677E-07  -7.75346114262799E-20   1.56921337512758E-05   1.54374980585300E-05  -1.59220739909158E-15
      0.00000000000000E+00   0.00000000000000E+00   0.00000000000000E+00   1.60335770948615E-07  -1.53814944122010E-19
     -1.07388557201821E-05  -1.05785199492337E-05  -3.17602360681649E-15   0.00000000000000E+00   0.00000000000000E+00
      0.00000000000000E+00   4.25845869827552E-08  -1.53742207952944E-19  -2.10236825194695E-06  -2.05978366496434E-06
     -3.17779409255876E-15   0.00000000000000E+00   0.00000000000000E+00   0.00000000000000E+00   1.85484127807250E-08
     -1.53731018461677E-19  -8.78355870429502E-07  -8.59807457648931E-07  -3.17803648312039E-15   0.00000000000000E+00
      0.00000000000000E+00   0.00000000000000E+00   1.09241653202104E-08  -1.89249160382967E-19  -5.30247569982997E-07
     -5.19323404662976E-07  -3.17816810734785E-15   0.00000000000000E+00   0.00000000000000E+00   0.00000000000000E+00
      7.28159837737498E-09  -1.53133524339388E-19  -3.74915924702909E-07  -3.67634326325687E-07  -3.17839029638592E-15
      5.00000000000000E-13
      0.00000000000000E+00   0.00000000000000E+00   0.00000000000000E+00   2.69631962756357E-09  -1.53131677255737E-19
     -1.90856655431790E-07  -1.88160335804379E-07  -3.17914495105654E-15   2.00000000000000E+02   2.00000000000000E+02
      0.00000000000000E+00  -2.23874494139461E-06   2.40175122617064E-06   1.39778056895909E-13   1.63006424554082E-07
      1.68183453193216E-14   0.00000000000000E+00   0.00000000000000E+00   0.00000000000000E+00  -5.45214197247482E-10
     -1.53722008945509E-19   4.69227492581944E-08   4.63775350607932E-08  -3.20735014627714E-15   0.00000000000000E+00
      0.00000000000000E+00   0.00000000000000E+00  -5.28770636325493E-09  -1.62776395706582E-11  -6.14767462248882E-07
     -6.20071446251707E-07   7.04870987170601E-15   0.00000000000000E+00   0.00000000000000E+00   0.00000000000000E+00
     -1.47813550628421E-07  -7.75819057474847E-20   9.82639793612637E-06   9.67858438549788E-06  -1.59123956079310E-15
      0.00000000000000E+00   0.00000000000000E+00   0.00000000000000E+00   1.01072002913415E-07  -1.53783667251040E-19
     -6.88033409910108E-06  -6.77926209618782E-06  -3.17670151324181E-15   0.00000000000000E+00   0.00000000000000E+00
      0.00000000000000E+00   2.23070708293757E-08  -1.53735544699923E-19  -1.26046607062041E-06  -1.23815899979119E-06
     -3.17791790442002E-15   0.00000000000000E+00   0.00000000000000E+00   0.00000000000000E+00   9.39655171037863E-09
     -1.53728319853270E-19  -5.29147009508034E-07  -5.19750457797809E-07  -3.17808845645779E-15   0.00000000000000E+00
      0.00000000000000E+00   0.00000000000000E+00   5.58384805306696E-09  -1.89247549454894E-19  -3.20715351070797E-07
     -3.15131503017919E-07  -3.17819961958400E-15   0.00000000000000E+00   0.00000000000000E+00   0.00000000000000E+00
      3.93666088686313E-09  -1.53132432878675E-19  -2.31370167056601E-07  -2.27433506169891E-07  -3.17841303919714E-15
      6.00000000000000E-13
      0.00000000000000E+00   0.00000000000000E+00   0.00000000000000E+00   1.69637134752722E-09  -1.53131210724162E-19
     -1.29684954698073E-07  -1.27988583350699E-07  -3.17915774958449E-15   2.00000000000000E+02   2.00000000000000E+02
      0.00000000000000E+00  -1.65863616218675E-06   1.79720780774825E-06   1.38339264615529E-13   1.38571783900763E-07
      1.68183591747756E-14   0.00000000000000E+00   0.00000000000000E+00   0.00000000000000E+00  -4.04391467580615E-10
     -1.53722210969920E-19   2.65083991919539E-08   2.61040077242196E-08  -3.20734753484190E-15   0.00000000000000E+00
      0.00000000000000E+00   0.00000000000000E+00  -6.41895178898062E-09  -1.62895004076677E-11  -3.85800587022015E-07
     -3.92235828311403E-07   7.04867064092387E-15   0.00000000000000E+00   0.00000000000000E+00   0.00000000000000E+00
     -8.95189068137419E-08  -7.76100113426631E-20   6.28450746159854E-06   6.19498855478472E-06  -1.59062008306879E-15
      0.00000000000000E+00   0.00000000000000E+00   0.00000000000000E+00   6.35510449688986E-08  -1.53764047805653E-19
     -4.44889734337387E-06  -4.38534629840513E-06  -3.17714002677767E-15   0.00000000000000E+00   0.00000000000000E+00
      0.00000000000000E+00   1.24717461906259E-08  -1.53731846602327E-19  -7.90166362605401E-07  -7.77694616414929E-07
     -3.17799566962617E-15   0.00000000000000E+00   0.00000000000000E+00   0.00000000000000E+00   5.22504047748880E-09
     -1.53726834422983E-19  -3.35593304493032E-07  -3.30368264015697E-07  -3.17812149148449E-15   0.00000000000000E+00
      0.00000000000000E+00   0.00000000000000E+00   3.13741038403304E-09  -1.89246652002222E-19  -2.03370473565905E-07
     -2.00233063182061E-07  -3.17821964192368E-15   0.00000000000000E+00   0.00000000000000E+00   0.00000000000000E+00
      2.29528819454815E-09  -1.53131798271250E-19  -1.48092980876371E-07  -1.45797692681976E-07  -3.17842761839224E-15
      7.00000000000000E-13
      0.00000000000000E+00   0.00000000000000E+00   0.00000000000000E+00   1.11190490883501E-09  -1.53130897927235E-19
     -8.94657817696485E-08  -8.83538768609666E-08  -3.17916658462175E-15   2.00000000000000E+02   2.00000000000000E+02
      0.00000000000000E+00  -1.30437607742023E-06   1.41648376207959E-06   1.37153438395996E-13   1.12107821812794E-07
      1.68183703838333E-14   0.00000000000000E+00   0.00000000000000E+00   0.00000000000000E+00  -2.51388667588418E-10
     -1.53722328865085E-19   1.38913555616729E-08   1.36399668939307E-08  -3.20734616977452E-15   0.00000000000000E+00
      0.00000000000000E+00   0.00000000000000E+00  -6.66951110671210E-09  -1.63009013817621E-11  -2.46251157268059E-07
     -2.52936969276153E-07   7.04864533958806E-15   0.00000000000000E+00   0.00000000000000E+00   0.00000000000000E+00
     -5.53684511899167E-08  -7.76269855941081E-20   4.09746029556877E-06   4.04209184437878E-06  -1.59021589575918E-15
      0.00000000000000E+00   0.00000000000000E+00   0.00000000000000E+00   4.00719212700088E-08  -1.53751716337455E-19
     -2.91416884813458E-06  -2.87409692686472E-06  -3.17742741451416E-15   0.00000000000000E+00   0.00000000000000E+00
      0.00000000000000E+00   7.33345918651992E-09  -1.53729683498825E-19  -5.13981601783139E-07  -5.06648142596772E-07
     -3.17804633004017E-15   0.00000000000000E+00   0.00000000000000E+00   0.00000000000000E+00   3.09724737174583E-09
     -1.53725956995476E-19  -2.21144391294764E-07  -2.18047143923172E-07  -3.17814329433778E-15   0.00000000000000E+00
      0.00000000000000E+00   0.00000000000000E+00   1.87044429560564E-09  -1.89246117894876E-19  -1.33558910788564E-07
     -1.31688466493148E-07  -3.17823280976850E-15   0.00000000000000E+00   0.00000000000000E+00   0.00000000000000E+00
      1.39895271793925E-09  -1.53131409818904E-19  -9.74670597772440E-08  -9.60681070594579E-08  -3.17843722460537E-15
      8.00000000000000E-13
      0.00000000000000E+00   0.00000000000000E+00   0.00000000000000E+00   7.42066531307967E-10  -1.53130684847234E-19
     -6.25274756974787E-08  -6.17854091663239E-08  -3.17917276279809E-15   2.00000000000000E+02   2.00000000000000E+02
      0.00000000000000E+00  -1.06711618464160E-06   1.15832086932111E-06   1.36111709975810E-13   9.12048207912188E-08
      1.68183795025911E-14   0.00000000000000E+00   0.00000000000000E+00   0.00000000000000E+00  -1.44893133643430E-10
     -1.53722392226191E-19   6.50110924636136E-09   6.35621611256420E-09  -3.20734553305589E-15   0.00000000000000E+00
      0.00000000000000E+00   0.00000000000000E+00  -6.44272295424396E-09  -1.63116191421407E-11  -1.60161906631352E-07
     -1.66620941204738E-07   7.04862866964499E-15   0.00000000000000E+00   0.00000000000000E+00   0.00000000000000E+00
     -3.47870875881119E-08  -7.76373114441352E-20   2.72476928332728E-06   2.68998219573909E-06  -1.58994692000268E-15
      0.00000000000000E+00   0.00000000000000E+00   0.00000000000000E+00   2.54051483569929E-08  -1.53743929622830E-19
     -1.94070989551979E-06  -1.91530474716296E-06  -3.17761892245687E-15   0.00000000000000E+00   0.00000000000000E+00
      0.00000000000000E+00   4.48021507437048E-09  -1.53728366455102E-19  -3.45446298204521E-07  -3.40966083130304E-07
     -3.17808042214897E-15   0.00000000000000E+00   0.00000000000000E+00   0.00000000000000E+00   1.91442977585691E-09
     -1.53725414490017E-19  -1.50510534607699E-07  -1.48596104831996E-07  -3.17815815204474E-15   0.00000000000000E+00
      0.00000000000000E+00   0.00000000000000E+00   1.15626499049354E-09  -1.89245786248731E-19  -9.04598692509403E-08
     -8.93036042606360E-08  -3.17824173910290E-15   0.00000000000000E+00   0.00000000000000E+00   0.00000000000000E+00
      8.75113236279676E-10  -1.53131163528891E-19  -6.58414561091329E-08  -6.49663428730063E-08  -3.17844372062596E-15
      9.00000000000000E-13
      0.00000000000000E+00   0.00000000000000E+00   0.00000000000000E+00   4.99490324637222E-10  -1.53130537890234E-19
     -4.43356848120403E-08  -4.38361944875562E-08  -3.17917714604284E-15   2.00000000000000E+02   2.00000000000000E+02
      0.00000000000000E+00  -8.98431270422648E-07   9.74853825985933E-07   1.35237204500050E-13   7.64226908004903E-08
      1.68183871431357E-14   0.00000000000000E+00   0.00000000000000E+00   0.00000000000000E+00  -7.97792508021524E-11
     -1.53722424117853E-19   2.29650094961991E-09   2.21672169866403E-09  -3.20734531026677E-15   0.00000000000000E+00
      0.00000000000000E+00   0.00000000000000E+00  -5.99845719985430E-09  -1.63215975048007E-11  -1.06431788277281E-07
     -1.12446567074640E-07   7.04861741707840E-15   0.00000000000000E+00   0.00000000000000E+00   0.00000000000000E+00
     -2.21573357853762E-08  -7.76435992007230E-20   1.85103388531751E-06   1.82887654953205E-06  -1.58976405529953E-15
      0.00000000000000E+00   0.00000000000000E+00   0.00000000000000E+00   1.62302070314414E-08  -1.53738979580797E-19
     -1.31870725414363E-06  -1.30247704711234E-06  -3.17774914723837E-15   0.00000000000000E+00   0.00000000000000E+00
      0.00000000000000E+00   2.81879295342760E-09  -1.53727539762020E-19  -2.39498716600930E-07  -2.36679923647657E-07
     -3.17810408557185E-15   0.00000000000000E+00   0.00000000000000E+00   0.00000000000000E+00   1.21691731433971E-09
     -1.53725066799509E-19  -1.05646933505971E-07  -1.04430016191785E-07  -3.17816859311272E-15   0.00000000000000E+00
      0.00000000000000E+00   0.00000000000000E+00   7.31885158728704E-10  -1.89245575513121E-19  -6.32036212279235E-08
     -6.24717360693840E-08  -3.17824798523335E-15   0.00000000000000E+00   0.00000000000000E+00   0.00000000000000E+00
      5.56917776979090E-10  -1.53131004963920E-19  -4.57313953159577E-08  -4.51744775391317E-08  -3.17844823744869E-15
      1.00000000000000E-12
      0.00000000000000E+00   0.00000000000000E+00   0.00000000000000E+00   3.38012224972620E-10  -1.53130435996322E-19
     -3.19913133321044E-08  -3.16533011072849E-08  -3.17918031099087E-15   2.00000000000000E+02   2.00000000000000E+02
      0.00000000000000E+00  -7.73352741590652E-07   8.39851707065101E-07   1.34457769768838E-13   6.64990999322193E-08
      1.68183937913213E-14   0.00000000000000E+00   0.00000000000000E+00   0.00000000000000E+00  -4.22359785141568E-11
     -1.53722437151961E-19  -4.71916455219738E-11  -8.94276241898531E-11  -3.20734531807685E-15   0.00000000000000E+00
      0.00000000000000E+00   0.00000000000000E+00  -5.48120089245023E-09  -1.63308631005046E-11  -7.24876395648440E-08
     -7.79851713203947E-08   7.04860961068742E-15   0.00000000000000E+00   0.00000000000000E+00   0.00000000000000E+00
     -1.43013892510015E-08  -7.76474050130948E-20   1.28736070719121E-06   1.27305931794013E-06  -1.58963677274316E-15
      0.00000000000000E+00   0.00000000000000E+00   0.00000000000000E+00   1.04694233694257E-08  -1.53735806390113E-19
     -9.17482659418583E-07  -9.07013236049311E-07  -3.17783982536790E-15   0.00000000000000E+00   0.00000000000000E+00
      0.00000000000000E+00   1.81583377493897E-09  -1.53727006673898E-19  -1.71286054228232E-07  -1.69470220453446E-07
     -3.17812102797364E-15   0.00000000000000E+00   0.00000000000000E+00   0.00000000000000E+00   7.89538553020042E-10
     -1.53724839788848E-19  -7.65491671201480E-08  -7.57596285672816E-08  -3.17817616711995E-15   0.00000000000000E+00
      0.00000000000000E+00   0.00000000000000E+00   4.71566165343765E-10  -1.89245438336967E-19  -4.56541993308172E-08
     -4.51826331656627E-08  -3.17825250244104E-15   0.00000000000000E+00   0.00000000000000E+00   0.00000000000000E+00
      3.59306082552649E-10  -1.53130900599967E-19  -3.27641057167010E-08  -3.24047996343015E-08  -3.17845147729538E-15
      1.10000000000000E-12
      0.00000000000000E+00   0.00000000000000E+00   0.00000000000000E+00   2.29901279712087E-10  -1.53130364899504E-19
     -2.35770407600428E-08  -2.33471394804838E-08  -3.17918264531728E-15   2.00000000000000E+02   2.00000000000000E+02
      0.00000000000000E+00  -6.77564940340761E-07   7.37562464757966E-07   1.33695098582762E-13   5.99976581123035E-08
      1.68183997893628E-14   0.00000000000000E+00   0.00000000000000E+00   0.00000000000000E+00  -2.12472413457219E-11
     -1.53722441387375E-19  -1.32704768687412E-09  -1.34829492837357E-09  -3.20734545176073E-15   0.00000000000000E+00
      0.00000000000000E+00   0.00000000000000E+00  -4.96518423590425E-09  -1.63394774440900E-11  -5.07537365840098E-08
     -5.57352602973581E-08   7.04860402938807E-15   0.00000000000000E+00   0.00000000000000E+00   0.00000000000000E+00
     -9.35913473806202E-09  -7.76496723656549E-20   9.18627894894666E-07   9.09268760156527E-07  -1.58954586962238E-15
      0.00000000000000E+00   0.00000000000000E+00   0.00000000000000E+00   6.83270632121618E-09  -1.53733751367850E-19
     -6.55658864520312E-07  -6.48826158199250E-07  -3.17790468459861E-15   0.00000000000000E+00   0.00000000000000E+00
      0.00000000000000E+00   1.19367696901563E-09  -1.53726656583883E-19  -1.26458945175765E-07  -1.25265268206903E-07
     -3.17813354984232E-15   0.00000000000000E+00   0.00000000000000E+00   0.00000000000000E+00   5.21132675069779E-10
     -1.53724688011230E-19  -5.73449615769056E-08  -5.68238289019895E-08  -3.17818184753066E-15   0.00000000000000E+00
      0.00000000000000E+00   0.00000000000000E+00   3.08714950175903E-10  -1.89245347386664E-19  -3.41731964944681E-08
     -3.38644815444814E-08  -3.17825588782421E-15   0.00000000000000E+00   0.00000000000000E+00   0.00000000000000E+00
      2.34917444968072E-10  -1.53130830775537E-19  -2.42909040796138E-08  -2.40559866347988E-08  -3.17845388225462E-15
      1.20000000000000E-12
      0.00000000000000E+00   0.00000000000000E+00   0.00000000000000E+00   1.57345569875993E-10  -1.53130314880694E-19
     -1.78094835174476E-08  -1.76521379477247E-08  -3.17918441013938E-15   2.00000000000000E+02   2.00000000000000E+02
      0.00000000000000E+00  -6.02230259229116E-07   6.57992772702438E-07   1.33041279248800E-13   5.57626465146012E-08
      1.68184053639031E-14   0.00000000000000E+00   0.00000000000000E+00   0.00000000000000E+00  -9.78665524832606E-12
     -1.53722440346630E-19  -2.00605657747717E-09  -2.01584323287922E-09  -3.20734565218847E-15   0.00000000000000E+00
      0.00000000000000E+00   0.00000000000000E+00  -4.48499082903113E-09  -1.63475123630730E-11  -3.66248018724280E-08
     -4.11261402138222E-08   7.04859990914409E-15   0.00000000000000E+00   0.00000000000000E+00   0.00000000000000E+00
     -6.21737919028684E-09  -7.76509789296949E-20   6.73762602367675E-07   6.67545223177310E-07  -1.58947913920452E-15
      0.00000000000000E+00   0.00000000000000E+00   0.00000000000000E+00   4.52120948806735E-09  -1.53732403768600E-19
     -4.82440887001710E-07  -4.77919677513797E-07  -3.17795245304431E-15   0.00000000000000E+00   0.00000000000000E+00
      0.00000000000000E+00   7.99652255399451E-10  -1.53726422217817E-19  -9.64340666872753E-08  -9.56344144320296E-08
     -3.17814310859667E-15   0.00000000000000E+00   0.00000000000000E+00   0.00000000000000E+00   3.49717068913997E-10
     -1.53724585402452E-19  -4.44571790499132E-08  -4.41074619811529E-08  -3.17818625629190E-15   0.00000000000000E+00
      0.00000000000000E+00   0.00000000000000E+00   2.05391052316652E-10  -1.89245285875134E-19  -2.65388979578626E-08
     -2.63335069057352E-08  -3.17825852010266E-15   0.00000000000000E+00   0.00000000000000E+00   0.00000000000000E+00
      1.55790783298329E-10  -1.53130783184883E-19  -1.86744783286247E-08  -1.85186875454795E-08  -3.17845573347922E-15
      1.30000000000000E-12
      0.00000000000000E+00   0.00000000000000E+00   0.00000000000000E+00   1.08534534388271E-10  -1.53130279307661E-19
     -1.38269798652987E-08  -1.37184453310636E-08  -3.17918578158903E-15   2.00000000000000E+02   2.00000000000000E+02
      0.00000000000000E+00  -5.41610734691080E-07   5.94586035765836E-07   1.32407398966407E-13   5.29754334821555E-08
      1.68184106597219E-14   0.00000000000000E+00   0.00000000000000E+00   0.00000000000000E+00  -3.67173294811381E-12
     -1.53722436714333E-19  -2.34847660835414E-09  -2.35214834145598E-09  -3.20734588623716E-15   0.00000000000000E+00
      0.00000000000000E+00   0.00000000000000E+00  -4.05378466744682E-09  -1.63550382993803E-11  -2.72793823928545E-08
     -3.13495220986007E-08   7.04859676673469E-15   0.00000000000000E+00   0.00000000000000E+00   0.00000000000000E+00
     -4.19949858895720E-09  -7.76516820299697E-20   5.08427445505606E-07   5.04227946916571E-07  -1.58942874084110E-15
      0.00000000000000E+00   0.00000000000000E+00   0.00000000000000E+00   3.04005737444516E-09  -1.53731508334730E-19
     -3.65995826055936E-07  -3.62955768681645E-07  -3.17798872499991E-15   0.00000000000000E+00   0.00000000000000E+00
      0.00000000000000E+00   5.45883729164475E-10  -1.53726261421918E-19  -7.59393550176999E-08  -7.53934712886891E-08
     -3.17815064323410E-15   0.00000000000000E+00   0.00000000000000E+00   0.00000000000000E+00   2.38809721265973E-10
     -1.53724514393917E-19  -3.56554765528883E-08  -3.54166668317760E-08  -3.17818979596354E-15   0.00000000000000E+00
      0.00000000000000E+00   0.00000000000000E+00   1.39123798913699E-10  -1.89245243346077E-19  -2.13708220614513E-08
     -2.12316982627268E-08  -3.17826064219457E-15   0.00000000000000E+00   0.00000000000000E+00   0.00000000000000E+00
      1.05011947727043E-10  -1.53130750063094E-19  -1.48906714951343E-08  -1.47856595475604E-08  -3.17845721139730E-15
      1.40000000000000E-12