DF-ISE text

Info {
  version   = 1.0
  type      = xyplot
  datasets  = [
    "time"
    "PIX7 OuterVoltage" "PIX7 InnerVoltage" "PIX7 QuasiFermiPotential" "PIX7 DisplacementCurrent" "PIX7 eCurrent"
    "PIX7 hCurrent" "PIX7 TotalCurrent" "PIX7 Charge" "BACK OuterVoltage" "BACK InnerVoltage"
    "BACK QuasiFermiPotential" "BACK DisplacementCurrent" "BACK eCurrent" "BACK hCurrent" "BACK TotalCurrent"
    "BACK Charge" "PIX8 OuterVoltage" "PIX8 InnerVoltage" "PIX8 QuasiFermiPotential" "PIX8 DisplacementCurrent"
    "PIX8 eCurrent" "PIX8 hCurrent" "PIX8 TotalCurrent" "PIX8 Charge" "PIX9 OuterVoltage"
    "PIX9 InnerVoltage" "PIX9 QuasiFermiPotential" "PIX9 DisplacementCurrent" "PIX9 eCurrent" "PIX9 hCurrent"
    "PIX9 TotalCurrent" "PIX9 Charge" "PIX1 OuterVoltage" "PIX1 InnerVoltage" "PIX1 QuasiFermiPotential"
    "PIX1 DisplacementCurrent" "PIX1 eCurrent" "PIX1 hCurrent" "PIX1 TotalCurrent" "PIX1 Charge"
    "PIX2 OuterVoltage" "PIX2 InnerVoltage" "PIX2 QuasiFermiPotential" "PIX2 DisplacementCurrent" "PIX2 eCurrent"
    "PIX2 hCurrent" "PIX2 TotalCurrent" "PIX2 Charge" "PIX3 OuterVoltage" "PIX3 InnerVoltage"
    "PIX3 QuasiFermiPotential" "PIX3 DisplacementCurrent" "PIX3 eCurrent" "PIX3 hCurrent" "PIX3 TotalCurrent"
    "PIX3 Charge" "PIX4 OuterVoltage" "PIX4 InnerVoltage" "PIX4 QuasiFermiPotential" "PIX4 DisplacementCurrent"
    "PIX4 eCurrent" "PIX4 hCurrent" "PIX4 TotalCurrent" "PIX4 Charge" "PIX5 OuterVoltage"
    "PIX5 InnerVoltage" "PIX5 QuasiFermiPotential" "PIX5 DisplacementCurrent" "PIX5 eCurrent" "PIX5 hCurrent"
    "PIX5 TotalCurrent" "PIX5 Charge" "PIX6 OuterVoltage" "PIX6 InnerVoltage" "PIX6 QuasiFermiPotential"
    "PIX6 DisplacementCurrent" "PIX6 eCurrent" "PIX6 hCurrent" "PIX6 TotalCurrent" "PIX6 Charge" ]
  functions = [
    Time
    OuterVoltage InnerVoltage QuasiFermiPotential DisplacementCurrent eCurrent
    hCurrent TotalCurrent Charge OuterVoltage InnerVoltage
    QuasiFermiPotential DisplacementCurrent eCurrent hCurrent TotalCurrent
    Charge OuterVoltage InnerVoltage QuasiFermiPotential DisplacementCurrent
    eCurrent hCurrent TotalCurrent Charge OuterVoltage
    InnerVoltage QuasiFermiPotential DisplacementCurrent eCurrent hCurrent
    TotalCurrent Charge OuterVoltage InnerVoltage QuasiFermiPotential
    DisplacementCurrent eCurrent hCurrent TotalCurrent Charge
    OuterVoltage InnerVoltage QuasiFermiPotential DisplacementCurrent eCurrent
    hCurrent TotalCurrent Charge OuterVoltage InnerVoltage
    QuasiFermiPotential DisplacementCurrent eCurrent hCurrent TotalCurrent
    Charge OuterVoltage InnerVoltage QuasiFermiPotential DisplacementCurrent
    eCurrent hCurrent TotalCurrent Charge OuterVoltage
    InnerVoltage QuasiFermiPotential DisplacementCurrent eCurrent hCurrent
    TotalCurrent Charge OuterVoltage InnerVoltage QuasiFermiPotential
    DisplacementCurrent eCurrent hCurrent TotalCurrent Charge ]
}

Data {
      0.00000000000000E+00
      0.00000000000000E+00   0.00000000000000E+00   0.00000000000000E+00  -7.41639767642022E-30  -1.53131048027052E-19
     -4.31859537534063E-15  -4.31874850638866E-15  -3.17924148555976E-15   2.00000000000000E+02   2.00000000000000E+02
      0.00000000000000E+00  -4.38787048304471E-26   6.11999015618652E-12   1.11237053013523E-11   1.72436954575388E-11
      1.68177494282920E-14   0.00000000000000E+00   0.00000000000000E+00   0.00000000000000E+00  -1.07125744214959E-29
     -1.53722664892220E-19  -4.81527078308231E-15  -4.81542450574721E-15  -3.20780957579879E-15   0.00000000000000E+00
      0.00000000000000E+00   0.00000000000000E+00   6.75056997391493E-27  -1.71999968914495E-11  -1.05034289609497E-14
     -1.72105003204104E-11   7.07088673081415E-15   0.00000000000000E+00   0.00000000000000E+00   0.00000000000000E+00
      2.88415465194120E-30  -7.62087392901926E-20  -2.46869454736120E-15  -2.46877075610049E-15  -1.61914747595537E-15
      0.00000000000000E+00   0.00000000000000E+00   0.00000000000000E+00  -1.64808837253783E-30  -1.53788914581493E-19
     -4.32533135810606E-15  -4.32548514702064E-15  -3.17225982985196E-15   0.00000000000000E+00   0.00000000000000E+00
      0.00000000000000E+00  -1.07125744214959E-29  -1.53740597260605E-19  -4.31529881004926E-15  -4.31545255064653E-15
     -3.17675365052508E-15   0.00000000000000E+00   0.00000000000000E+00   0.00000000000000E+00  -8.24044186268913E-30
     -1.53731158912797E-19  -4.31641513268356E-15  -4.31656886384248E-15  -3.17760403665464E-15   0.00000000000000E+00
      0.00000000000000E+00   0.00000000000000E+00  -1.31847069803026E-29  -1.89248307215442E-19  -4.31692432986247E-15
     -4.31711357816970E-15  -3.17799024863341E-15   0.00000000000000E+00   0.00000000000000E+00   0.00000000000000E+00
     -1.23606627940337E-29  -1.53132060281153E-19  -4.31742008837359E-15  -4.31757322043388E-15  -3.17836422924232E-15
      1.00000000000000E-13
      0.00000000000000E+00   0.00000000000000E+00   0.00000000000000E+00   3.77577143607903E-07  -1.53109173184805E-19
      2.36358884872175E-06   2.74116599232950E-06  -3.17896736895624E-15   2.00000000000000E+02   2.00000000000000E+02
      0.00000000000000E+00  -1.97630437870890E-04   2.03072987848067E-04   1.58197644810082E-13   5.44255013537401E-06
      1.68182936815812E-14   0.00000000000000E+00   0.00000000000000E+00   0.00000000000000E+00   2.12904734874626E-07
     -1.53686865941935E-19   4.13034213620310E-06   4.34324687107757E-06  -3.20737525080211E-15   0.00000000000000E+00
      0.00000000000000E+00   0.00000000000000E+00  -2.11313038635661E-04  -1.62055665114464E-11  -4.37644907916433E-06
     -2.15689503920392E-04   7.04931778530459E-15   0.00000000000000E+00   0.00000000000000E+00   0.00000000000000E+00
     -3.12847909792773E-05  -7.58489177716099E-20   2.16522447033823E-04   1.85237656054545E-04  -1.60062371843698E-15
      0.00000000000000E+00   0.00000000000000E+00   0.00000000000000E+00   1.38490511618064E-05  -1.53704454536573E-19
      2.09491800201327E-06   1.59439691638196E-05  -3.17066543011268E-15   0.00000000000000E+00   0.00000000000000E+00
      0.00000000000000E+00   2.98924581902863E-06  -1.53726523390091E-19  -5.78020567290356E-07   2.41122525173812E-06
     -3.17651252697355E-15   0.00000000000000E+00   0.00000000000000E+00   0.00000000000000E+00   1.29985263232552E-06
     -1.53721708630155E-19  -1.76913121714885E-08   1.28216132015388E-06  -3.17747582006537E-15   0.00000000000000E+00
      0.00000000000000E+00   0.00000000000000E+00   7.45391829902543E-07  -1.89235796422132E-19   8.73721428385585E-07
      1.61911325828794E-06  -3.17782833709826E-15   0.00000000000000E+00   0.00000000000000E+00   0.00000000000000E+00
      4.98715713000887E-07  -1.53116417093132E-19   1.51343131214343E-06   2.01214702514416E-06  -3.17816301444054E-15
      2.00000000000000E-13
      0.00000000000000E+00   0.00000000000000E+00   0.00000000000000E+00  -7.54894402642878E-08  -1.53135712746223E-19
     -7.28711502432174E-07  -8.04200942696615E-07  -3.17904778893432E-15   2.00000000000000E+02   2.00000000000000E+02
      0.00000000000000E+00  -1.91940703016093E-05   1.83681102876446E-05   1.48515626893708E-13  -8.25959865449095E-07
      1.68182110838701E-14   0.00000000000000E+00   0.00000000000000E+00   0.00000000000000E+00  -9.93433716915083E-08
     -1.53720626360005E-19   1.62400025687653E-07   6.30566539959912E-08  -3.20736894453080E-15   0.00000000000000E+00
      0.00000000000000E+00   0.00000000000000E+00  -4.51369299609000E-08  -1.62422965012933E-11  -2.75404806596083E-06
     -2.79920123821823E-06   7.04903786556242E-15   0.00000000000000E+00   0.00000000000000E+00   0.00000000000000E+00
     -4.43814764223128E-06  -7.72689894395055E-20   4.79999273248085E-05   4.35617796825771E-05  -1.59626755393323E-15
      0.00000000000000E+00   0.00000000000000E+00   0.00000000000000E+00  -6.98354395166267E-07  -1.53935554027213E-19
     -2.54603885619677E-05  -2.61587429571341E-05  -3.17328129447262E-15   0.00000000000000E+00   0.00000000000000E+00
      0.00000000000000E+00  -1.49782183433230E-07  -1.53779833839787E-19  -6.77596570875570E-06  -6.92574789218909E-06
     -3.17720509941237E-15   0.00000000000000E+00   0.00000000000000E+00   0.00000000000000E+00  -6.94488879289321E-08
     -1.53747747081330E-19  -2.99177940434103E-06  -3.06122829227012E-06  -3.17778194188965E-15   0.00000000000000E+00
      0.00000000000000E+00   0.00000000000000E+00  -6.16391237431885E-08  -1.89259029347869E-19  -1.78618883303944E-06
     -1.84782795678282E-06  -3.17801311938188E-15   0.00000000000000E+00   0.00000000000000E+00   0.00000000000000E+00
     -6.35180506416704E-08  -1.53139415461477E-19  -1.13840914110507E-06  -1.20192719174690E-06  -3.17828320687780E-15
      3.00000000000000E-13
      0.00000000000000E+00   0.00000000000000E+00   0.00000000000000E+00   7.67545492863379E-09  -1.53133643582997E-19
     -4.52487191853273E-07  -4.44811736924792E-07  -3.17909226990906E-15   2.00000000000000E+02   2.00000000000000E+02
      0.00000000000000E+00  -6.13291754824612E-06   6.03723954964247E-06   1.44246792938284E-13  -9.56778543568560E-08
      1.68182015143604E-14   0.00000000000000E+00   0.00000000000000E+00   0.00000000000000E+00  -5.50547200043812E-10
     -1.53721307300048E-19   1.08103480108162E-07   1.07552932907965E-07  -3.20735818844952E-15   0.00000000000000E+00
      0.00000000000000E+00   0.00000000000000E+00  -2.38265292218575E-09  -1.62541437323418E-11  -1.64014121486987E-06
     -1.64254012193579E-06   7.04887360867679E-15   0.00000000000000E+00   0.00000000000000E+00   0.00000000000000E+00
     -5.55271871571410E-07  -7.74516578546816E-20   2.58628332016974E-05   2.53075613301259E-05  -1.59373681448790E-15
      0.00000000000000E+00   0.00000000000000E+00   0.00000000000000E+00   2.31024303258212E-07  -1.53864429527392E-19
     -1.68072758042434E-05  -1.65762515009853E-05  -3.17493890495371E-15   0.00000000000000E+00   0.00000000000000E+00
      0.00000000000000E+00   8.26328882778278E-08  -1.53754890125199E-19  -3.68902527900467E-06  -3.60639239072700E-06
     -3.17756573547578E-15   0.00000000000000E+00   0.00000000000000E+00   0.00000000000000E+00   3.88129660522172E-08
     -1.53736320497243E-19  -1.55542543453067E-06  -1.51661246847861E-06  -3.17793360179080E-15   0.00000000000000E+00
      0.00000000000000E+00   0.00000000000000E+00   2.27098961181215E-08  -1.89252295397036E-19  -9.32839936753296E-07
     -9.10130040635364E-07  -3.17810413168099E-15   0.00000000000000E+00   0.00000000000000E+00   0.00000000000000E+00
      1.36174188235174E-08  -1.53135528242156E-19  -6.36315567836376E-07  -6.22698149013011E-07  -3.17834547628942E-15
      4.00000000000000E-13
      0.00000000000000E+00   0.00000000000000E+00   0.00000000000000E+00   4.60476301024875E-09  -1.53132391163634E-19
     -2.85754880663825E-07  -2.81150117653729E-07  -3.17912038466297E-15   2.00000000000000E+02   2.00000000000000E+02
      0.00000000000000E+00  -3.34424328680967E-06   3.45048436492624E-06   1.41646553232506E-13   1.06241219763127E-07
      1.68182121367581E-14   0.00000000000000E+00   0.00000000000000E+00   0.00000000000000E+00  -4.00991255721468E-10
     -1.53721686731542E-19   7.77738911133141E-08   7.73728998574389E-08  -3.20735045025505E-15   0.00000000000000E+00
      0.00000000000000E+00   0.00000000000000E+00  -3.03539965992262E-09  -1.62652950089187E-11  -9.95144969732716E-07
     -9.98196634687648E-07   7.04877378399677E-15   0.00000000000000E+00   0.00000000000000E+00   0.00000000000000E+00
     -2.54781826837359E-07  -7.75345614716004E-20   1.56987067658095E-05   1.54439249389720E-05  -1.59219244074517E-15
      0.00000000000000E+00   0.00000000000000E+00   0.00000000000000E+00   1.60060963181774E-07  -1.53814850786730E-19
     -1.07266010039149E-05  -1.05665400407332E-05  -3.17599554119641E-15   0.00000000000000E+00   0.00000000000000E+00
      0.00000000000000E+00   4.23577425848951E-08  -1.53742131621425E-19  -2.09233108273327E-06  -2.04997334014853E-06
     -3.17777072911428E-15   0.00000000000000E+00   0.00000000000000E+00   0.00000000000000E+00   1.83793977255246E-08
     -1.53730962342942E-19  -8.70961471490532E-07  -8.52582073765161E-07  -3.17801885843682E-15   0.00000000000000E+00
      0.00000000000000E+00   0.00000000000000E+00   1.08090886345103E-08  -1.89249125443669E-19  -5.25604132231633E-07
     -5.14795043597312E-07  -3.17815561035691E-15   0.00000000000000E+00   0.00000000000000E+00   0.00000000000000E+00
      7.20342092061264E-09  -1.53133498523305E-19  -3.71505228791874E-07  -3.64301807871415E-07  -3.17838190598711E-15
      5.00000000000000E-13
      0.00000000000000E+00   0.00000000000000E+00   0.00000000000000E+00   2.64669946539940E-09  -1.53131675669437E-19
     -1.90493050077806E-07  -1.87846350612559E-07  -3.17913916899897E-15   2.00000000000000E+02   2.00000000000000E+02
      0.00000000000000E+00  -2.23768109789527E-06   2.39273306387552E-06   1.39785408928853E-13   1.55052105765660E-07
      1.68182276402443E-14   0.00000000000000E+00   0.00000000000000E+00   0.00000000000000E+00  -5.82197290514583E-10
     -1.53722008270248E-19   4.71377015712338E-08   4.65555042805655E-08  -3.20734579372352E-15   0.00000000000000E+00
      0.00000000000000E+00   0.00000000000000E+00  -5.32787340172335E-09  -1.62771543928143E-11  -6.14726963794548E-07
     -6.20071114350665E-07   7.04871177053182E-15   0.00000000000000E+00   0.00000000000000E+00   0.00000000000000E+00
     -1.47947171752753E-07  -7.75818984756344E-20   9.82779269680651E-06   9.67984552505368E-06  -1.59122447633712E-15
      0.00000000000000E+00   0.00000000000000E+00   0.00000000000000E+00   1.00821592008316E-07  -1.53783653335980E-19
     -6.87777834572063E-06  -6.77695675371247E-06  -3.17667321710155E-15   0.00000000000000E+00   0.00000000000000E+00
      0.00000000000000E+00   2.20995017343873E-08  -1.53735534143143E-19  -1.25846619693505E-06  -1.23636669520082E-06
     -3.17789436175599E-15   0.00000000000000E+00   0.00000000000000E+00   0.00000000000000E+00   9.24093559614072E-09
     -1.53728313004415E-19  -5.27776251008620E-07  -5.18535315412633E-07  -3.17807071026813E-15   0.00000000000000E+00
      0.00000000000000E+00   0.00000000000000E+00   5.47664582594999E-09  -1.89247548424418E-19  -3.20226062697280E-07
     -3.14749416871520E-07  -3.17818708439029E-15   0.00000000000000E+00   0.00000000000000E+00   0.00000000000000E+00
      3.86351992482345E-09  -1.53132430173872E-19  -2.30791008798802E-07  -2.26927488874132E-07  -3.17840459820044E-15
      6.00000000000000E-13
      0.00000000000000E+00   0.00000000000000E+00   0.00000000000000E+00   1.66159652786519E-09  -1.53131220050754E-19
     -1.30667081704773E-07  -1.29005485177061E-07  -3.17915206921971E-15   2.00000000000000E+02   2.00000000000000E+02
      0.00000000000000E+00  -1.65772100485031E-06   1.81599648300284E-06   1.38336759140556E-13   1.58275616489285E-07
      1.68182434660815E-14   0.00000000000000E+00   0.00000000000000E+00   0.00000000000000E+00  -4.30212446493217E-10
     -1.53722218413405E-19   2.57236277736460E-08   2.52934153269990E-08  -3.20734326334905E-15   0.00000000000000E+00
      0.00000000000000E+00   0.00000000000000E+00  -6.45475176147471E-09  -1.62890546033677E-11  -3.86179360593983E-07
     -3.92650401410061E-07   7.04867249834335E-15   0.00000000000000E+00   0.00000000000000E+00   0.00000000000000E+00
     -8.96128910714860E-08  -7.76100338944521E-20   6.28225660529606E-06   6.19264371422449E-06  -1.59060523310128E-15
      0.00000000000000E+00   0.00000000000000E+00   0.00000000000000E+00   6.33749539038707E-08  -1.53764089393970E-19
     -4.45316536666257E-06  -4.38979041275885E-06  -3.17711217506278E-15   0.00000000000000E+00   0.00000000000000E+00
      0.00000000000000E+00   1.23259905989257E-08  -1.53731881952432E-19  -7.93813444354566E-07  -7.81487453755794E-07
     -3.17797250625668E-15   0.00000000000000E+00   0.00000000000000E+00   0.00000000000000E+00   5.11602025925942E-09
     -1.53726861895070E-19  -3.38446232322951E-07  -3.33330212063845E-07  -3.17810404149772E-15   0.00000000000000E+00
      0.00000000000000E+00   0.00000000000000E+00   3.06316307660372E-09  -1.89246674303344E-19  -2.05758508086367E-07
     -2.02695345009953E-07  -3.17820735296389E-15   0.00000000000000E+00   0.00000000000000E+00   0.00000000000000E+00
      2.24403235455706E-09  -1.53131811652168E-19  -1.49497468270793E-07  -1.47253435916389E-07  -3.17841932297368E-15
      7.00000000000000E-13
      0.00000000000000E+00   0.00000000000000E+00   0.00000000000000E+00   1.09033452637540E-09  -1.53130913946591E-19
     -9.12822330957425E-08  -9.01918985695202E-08  -3.17916108806169E-15   2.00000000000000E+02   2.00000000000000E+02
      0.00000000000000E+00  -1.30363721931792E-06   1.45260391349955E-06   1.37146303273215E-13   1.48966831327937E-07
      1.68182583610402E-14   0.00000000000000E+00   0.00000000000000E+00   0.00000000000000E+00  -2.67248370220626E-10
     -1.53722341244252E-19   1.24913443385266E-08   1.22240959681522E-08  -3.20734203987025E-15   0.00000000000000E+00
      0.00000000000000E+00   0.00000000000000E+00  -6.69922008446907E-09  -1.63004937580508E-11  -2.46883821606076E-07
     -2.53599342184303E-07   7.04864713081995E-15   0.00000000000000E+00   0.00000000000000E+00   0.00000000000000E+00
     -5.54273533744494E-08  -7.76270266440460E-20   4.09292018237830E-06   4.03749282900377E-06  -1.59020150569758E-15
      0.00000000000000E+00   0.00000000000000E+00   0.00000000000000E+00   3.99615287109209E-08  -1.53751792370727E-19
     -2.92271754715718E-06  -2.88275601844642E-06  -3.17740042872197E-15   0.00000000000000E+00   0.00000000000000E+00
      0.00000000000000E+00   7.24233812947309E-09  -1.53729747265353E-19  -5.21162074693013E-07  -5.13919736563693E-07
     -3.17802389384061E-15   0.00000000000000E+00   0.00000000000000E+00   0.00000000000000E+00   3.02932269957100E-09
     -1.53726005630501E-19  -2.26630215805476E-07  -2.23600893106059E-07  -3.17812639973379E-15   0.00000000000000E+00
      0.00000000000000E+00   0.00000000000000E+00   1.82508336118847E-09  -1.89246154285239E-19  -1.37704148795160E-07
     -1.35879065434161E-07  -3.17822093987418E-15   0.00000000000000E+00   0.00000000000000E+00   0.00000000000000E+00
      1.36709407963369E-09  -1.53131433087383E-19  -1.00103896072842E-07  -9.87368019933613E-08  -3.17842919606004E-15
      8.00000000000000E-13
      0.00000000000000E+00   0.00000000000000E+00   0.00000000000000E+00   7.30654970192763E-10  -1.53130704327316E-19
     -6.47847200238728E-08  -6.40540650538332E-08  -3.17916749310608E-15   2.00000000000000E+02   2.00000000000000E+02
      0.00000000000000E+00  -1.06654220477171E-06   1.20369028245153E-06   1.36127446645546E-13   1.37148213807269E-07
      1.68182720741372E-14   0.00000000000000E+00   0.00000000000000E+00   0.00000000000000E+00  -1.53134954631874E-10
     -1.53722407117320E-19   4.78046907732687E-09   4.62733412254128E-09  -3.20734157604127E-15   0.00000000000000E+00
      0.00000000000000E+00   0.00000000000000E+00  -6.46643250469240E-09  -1.63112464820246E-11  -1.60922585369709E-07
     -1.67405329120883E-07   7.04863038248600E-15   0.00000000000000E+00   0.00000000000000E+00   0.00000000000000E+00
     -3.48188080251456E-08  -7.76373622563195E-20   2.71899128882045E-06   2.68417248079523E-06  -1.58993311091683E-15
      0.00000000000000E+00   0.00000000000000E+00   0.00000000000000E+00   2.53456749237494E-08  -1.53744023861204E-19
     -1.95156918624950E-06  -1.92622351132590E-06  -3.17759302855412E-15   0.00000000000000E+00   0.00000000000000E+00
      0.00000000000000E+00   4.43133627573140E-09  -1.53728445168575E-19  -3.54525205848882E-07  -3.50093869573305E-07
     -3.17805889873820E-15   0.00000000000000E+00   0.00000000000000E+00   0.00000000000000E+00   1.87824480467593E-09
     -1.53725474164257E-19  -1.57401402367322E-07  -1.55523157562800E-07  -3.17814195015363E-15   0.00000000000000E+00
      0.00000000000000E+00   0.00000000000000E+00   1.13300281139728E-09  -1.89245829701844E-19  -9.55074243482243E-08
     -9.43744215370163E-08  -3.17823037629563E-15   0.00000000000000E+00   0.00000000000000E+00   0.00000000000000E+00
      8.58194459482273E-10  -1.53131191928198E-19  -6.91318689224896E-08  -6.82736744631604E-08  -3.17843602281741E-15
      9.00000000000000E-13
      0.00000000000000E+00   0.00000000000000E+00   0.00000000000000E+00   4.95325403983324E-10  -1.53130558538975E-19
     -4.67533596039744E-08  -4.62580342001442E-08  -3.17917211853716E-15   2.00000000000000E+02   2.00000000000000E+02
      0.00000000000000E+00  -8.97997426651160E-07   1.02369367194319E-06   1.35231175705388E-13   1.25696380523201E-07
      1.68182846420509E-14   0.00000000000000E+00   0.00000000000000E+00   0.00000000000000E+00  -8.26369294775663E-11
     -1.53722439187541E-19   4.64143974833455E-10   3.81507045202167E-10  -3.20734153677498E-15   0.00000000000000E+00
      0.00000000000000E+00   0.00000000000000E+00  -6.01687092711276E-09  -1.63212557141622E-11  -1.07232120767553E-07
     -1.13265312950380E-07   7.04861904809053E-15   0.00000000000000E+00   0.00000000000000E+00   0.00000000000000E+00
     -2.21695655781037E-08  -7.76436535403859E-20   1.84477334860645E-06   1.82260378302827E-06  -1.58975087349448E-15
      0.00000000000000E+00   0.00000000000000E+00   0.00000000000000E+00   1.62072607951487E-08  -1.53739080425698E-19
     -1.33046268558456E-06  -1.31425542478956E-06  -3.17772443118581E-15   0.00000000000000E+00   0.00000000000000E+00
      0.00000000000000E+00   2.80018321520262E-09  -1.53727623798854E-19  -2.49304182844754E-07  -2.46503999629706E-07
     -3.17808354457838E-15   0.00000000000000E+00   0.00000000000000E+00   0.00000000000000E+00   1.20344122697958E-09
     -1.53725130334378E-19  -1.13064875037138E-07  -1.11861433810312E-07  -3.17815313437064E-15   0.00000000000000E+00
      0.00000000000000E+00   0.00000000000000E+00   7.24176288163453E-10  -1.89245621097643E-19  -6.85498443911575E-08
     -6.78256681031833E-08  -3.17823715782436E-15   0.00000000000000E+00   0.00000000000000E+00   0.00000000000000E+00
      5.50659337705095E-10  -1.53131035121145E-19  -4.92624564312175E-08  -4.87117970936656E-08  -3.17844089337555E-15
      1.00000000000000E-12
      0.00000000000000E+00   0.00000000000000E+00   0.00000000000000E+00   3.38628050584738E-10  -1.53130456309160E-19
     -3.43841725904713E-08  -3.40455445400397E-08  -3.17917552271180E-15   2.00000000000000E+02   2.00000000000000E+02
      0.00000000000000E+00  -7.73031415910333E-07   8.88330888376334E-07   1.34430873580508E-13   1.15299606896874E-07
      1.68182961702871E-14   0.00000000000000E+00   0.00000000000000E+00   0.00000000000000E+00  -4.15530189285665E-11
     -1.53722452745799E-19  -1.85399570429167E-09  -1.89554872337396E-09  -3.20734172519849E-15   0.00000000000000E+00
      0.00000000000000E+00   0.00000000000000E+00  -5.49528040405626E-09  -1.63305479205439E-11  -7.32703031135514E-08
     -7.87819140655282E-08   7.04861116206903E-15   0.00000000000000E+00   0.00000000000000E+00   0.00000000000000E+00
     -1.43006448820738E-08  -7.76474587619625E-20   1.28112122265234E-06   1.26682057777019E-06  -1.58962421481614E-15
      0.00000000000000E+00   0.00000000000000E+00   0.00000000000000E+00   1.04707696167520E-08  -1.53735906096457E-19
     -9.29191880114452E-07  -9.18721110497853E-07  -3.17781628011461E-15   0.00000000000000E+00   0.00000000000000E+00
      0.00000000000000E+00   1.81735207948199E-09  -1.53727089714222E-19  -1.81038865212555E-07  -1.79221513133227E-07
     -3.17810146211870E-15   0.00000000000000E+00   0.00000000000000E+00   0.00000000000000E+00   7.91080952203099E-10
     -1.53724902444029E-19  -8.39120063221075E-08  -8.31209253700581E-08  -3.17816144451448E-15   0.00000000000000E+00
      0.00000000000000E+00   0.00000000000000E+00   4.74031934813691E-10  -1.89245482853775E-19  -5.09051257396274E-08
     -5.04310938050030E-08  -3.17824219988297E-15   0.00000000000000E+00   0.00000000000000E+00   0.00000000000000E+00
      3.60136650299377E-10  -1.53130930296335E-19  -3.62626711639624E-08  -3.59025345138161E-08  -3.17844448299903E-15
      1.10000000000000E-12
      0.00000000000000E+00   0.00000000000000E+00   0.00000000000000E+00   2.33456393560251E-10  -1.53130383965403E-19
     -2.58318144486088E-08  -2.55983580552017E-08  -3.17917808216222E-15   2.00000000000000E+02   2.00000000000000E+02
      0.00000000000000E+00  -6.77330588175407E-07   7.83329641947860E-07   1.33708387558143E-13   1.05999187480840E-07
      1.68183067684815E-14   0.00000000000000E+00   0.00000000000000E+00   0.00000000000000E+00  -1.84190475784312E-11
     -1.53722455843055E-19  -3.02493293760535E-09  -3.04335198533750E-09  -3.20734202838934E-15   0.00000000000000E+00
      0.00000000000000E+00   0.00000000000000E+00  -4.97580279807549E-09  -1.63391848275033E-11  -5.14846113367147E-08
     -5.64767533196177E-08   7.04860550666214E-15   0.00000000000000E+00   0.00000000000000E+00   0.00000000000000E+00
     -9.35039032365446E-09  -7.76497230013968E-20   9.12720608398867E-07   9.03370218075135E-07  -1.58953390155345E-15
      0.00000000000000E+00   0.00000000000000E+00   0.00000000000000E+00   6.84906075701324E-09  -1.53733845400001E-19
     -6.66740215985304E-07  -6.59891155228445E-07  -3.17788224585627E-15   0.00000000000000E+00   0.00000000000000E+00
      0.00000000000000E+00   1.20755836840316E-09  -1.53726734754940E-19  -1.35679267986852E-07  -1.34471709618602E-07
     -3.17811490464035E-15   0.00000000000000E+00   0.00000000000000E+00   0.00000000000000E+00   5.31872189869937E-10
     -1.53724746895802E-19  -6.42954956834697E-08  -6.37636234937534E-08  -3.17816781891126E-15   0.00000000000000E+00
      0.00000000000000E+00   0.00000000000000E+00   3.17273003242936E-10  -1.89245388933573E-19  -3.90920968855250E-08
     -3.87748238824713E-08  -3.17824607630497E-15   0.00000000000000E+00   0.00000000000000E+00   0.00000000000000E+00
      2.40051991272563E-10  -1.53130858665509E-19  -2.75896820097589E-08  -2.73496300186395E-08  -3.17844721732575E-15
      1.20000000000000E-12
      0.00000000000000E+00   0.00000000000000E+00   0.00000000000000E+00   1.62530396152714E-10  -1.53130332199233E-19
     -1.98629144797387E-08  -1.97003840837391E-08  -3.17918005181100E-15   2.00000000000000E+02   2.00000000000000E+02
      0.00000000000000E+00  -6.02062471046637E-07   6.99730285127714E-07   1.33039172843481E-13   9.76679471202507E-08
      1.68183165335518E-14   0.00000000000000E+00   0.00000000000000E+00   0.00000000000000E+00  -5.77784488831457E-12
     -1.53722453421712E-19  -3.54895293662821E-09  -3.55473078167025E-09  -3.20734238270704E-15   0.00000000000000E+00
      0.00000000000000E+00   0.00000000000000E+00  -4.49288222832157E-09  -1.63472386249354E-11  -3.72855920712644E-08
     -4.17948215382109E-08   7.04860131958994E-15   0.00000000000000E+00   0.00000000000000E+00   0.00000000000000E+00
     -6.20412453359010E-09  -7.76510249118007E-20   6.68363550856980E-07   6.62159426323313E-07  -1.58946770971904E-15
      0.00000000000000E+00   0.00000000000000E+00   0.00000000000000E+00   4.54601509799619E-09  -1.53732489411375E-19
     -4.92565690532277E-07  -4.88019675434435E-07  -3.17793102431247E-15   0.00000000000000E+00   0.00000000000000E+00
      0.00000000000000E+00   8.20494986432772E-10  -1.53726492745003E-19  -1.04851753548402E-07  -1.04031258562123E-07
     -3.17812530308755E-15   0.00000000000000E+00   0.00000000000000E+00   0.00000000000000E+00   3.65612103517942E-10
     -1.53724638952094E-19  -5.07953389750454E-08  -5.04297268716812E-08  -3.17817285990529E-15   0.00000000000000E+00
      0.00000000000000E+00   0.00000000000000E+00   2.17283415285163E-10  -1.89245323439389E-19  -3.09973755336296E-08
     -3.07800921185337E-08  -3.17824915324636E-15   0.00000000000000E+00   0.00000000000000E+00   0.00000000000000E+00
      1.63345373489741E-10  -1.53130808529251E-19  -2.16800292882930E-08  -2.15166839149564E-08  -3.17844936835300E-15
      1.30000000000000E-12
      0.00000000000000E+00   0.00000000000000E+00   0.00000000000000E+00   1.14524590258783E-10  -1.53130294644894E-19
     -1.56484410513228E-08  -1.55339164612171E-08  -3.17918160480974E-15   2.00000000000000E+02   2.00000000000000E+02
      0.00000000000000E+00  -5.41494224525617E-07   6.31651493747154E-07   1.32419850275422E-13   9.01574016413872E-08
      1.68183255475676E-14   0.00000000000000E+00   0.00000000000000E+00   0.00000000000000E+00   9.16841326920028E-13
     -1.53722448262051E-19  -3.71451322694522E-09  -3.71359638577202E-09  -3.20734275290168E-15   0.00000000000000E+00
      0.00000000000000E+00   0.00000000000000E+00  -4.05950982744811E-09  -1.63547801496384E-11  -2.78619198016183E-08
     -3.19377844092160E-08   7.04859811839257E-15   0.00000000000000E+00   0.00000000000000E+00   0.00000000000000E+00
     -4.18401868051720E-09  -7.76517230582133E-20   5.03623900055074E-07   4.99439881374479E-07  -1.58941779016583E-15
      0.00000000000000E+00   0.00000000000000E+00   0.00000000000000E+00   3.06905826180860E-09  -1.53731584362469E-19
     -3.75001539566136E-07  -3.71932481304481E-07  -3.17796819394956E-15   0.00000000000000E+00   0.00000000000000E+00
      0.00000000000000E+00   5.70117785070409E-10  -1.53726324764733E-19  -8.34215956149161E-08  -8.28514778299994E-08
     -3.17813358353371E-15   0.00000000000000E+00   0.00000000000000E+00   0.00000000000000E+00   2.57209167982654E-10
     -1.53724561860490E-19  -4.12838228738552E-08  -4.10266137060263E-08  -3.17817696057768E-15   0.00000000000000E+00
      0.00000000000000E+00   0.00000000000000E+00   1.52524755444496E-10  -1.89245276482685E-19  -2.53100210737878E-08
     -2.51574963185325E-08  -3.17825166792227E-15   0.00000000000000E+00   0.00000000000000E+00   0.00000000000000E+00
      1.13732044760979E-10  -1.53130772515374E-19  -1.75576487064343E-08  -1.74439166618265E-08  -3.17845111209969E-15
      1.40000000000000E-12