DF-ISE text

Info {
  version   = 1.0
  type      = xyplot
  datasets  = [
    "time"
    "PIX7 OuterVoltage" "PIX7 InnerVoltage" "PIX7 QuasiFermiPotential" "PIX7 DisplacementCurrent" "PIX7 eCurrent"
    "PIX7 hCurrent" "PIX7 TotalCurrent" "PIX7 Charge" "BACK OuterVoltage" "BACK InnerVoltage"
    "BACK QuasiFermiPotential" "BACK DisplacementCurrent" "BACK eCurrent" "BACK hCurrent" "BACK TotalCurrent"
    "BACK Charge" "PIX8 OuterVoltage" "PIX8 InnerVoltage" "PIX8 QuasiFermiPotential" "PIX8 DisplacementCurrent"
    "PIX8 eCurrent" "PIX8 hCurrent" "PIX8 TotalCurrent" "PIX8 Charge" "PIX9 OuterVoltage"
    "PIX9 InnerVoltage" "PIX9 QuasiFermiPotential" "PIX9 DisplacementCurrent" "PIX9 eCurrent" "PIX9 hCurrent"
    "PIX9 TotalCurrent" "PIX9 Charge" "PIX1 OuterVoltage" "PIX1 InnerVoltage" "PIX1 QuasiFermiPotential"
    "PIX1 DisplacementCurrent" "PIX1 eCurrent" "PIX1 hCurrent" "PIX1 TotalCurrent" "PIX1 Charge"
    "PIX2 OuterVoltage" "PIX2 InnerVoltage" "PIX2 QuasiFermiPotential" "PIX2 DisplacementCurrent" "PIX2 eCurrent"
    "PIX2 hCurrent" "PIX2 TotalCurrent" "PIX2 Charge" "PIX3 OuterVoltage" "PIX3 InnerVoltage"
    "PIX3 QuasiFermiPotential" "PIX3 DisplacementCurrent" "PIX3 eCurrent" "PIX3 hCurrent" "PIX3 TotalCurrent"
    "PIX3 Charge" "PIX4 OuterVoltage" "PIX4 InnerVoltage" "PIX4 QuasiFermiPotential" "PIX4 DisplacementCurrent"
    "PIX4 eCurrent" "PIX4 hCurrent" "PIX4 TotalCurrent" "PIX4 Charge" "PIX5 OuterVoltage"
    "PIX5 InnerVoltage" "PIX5 QuasiFermiPotential" "PIX5 DisplacementCurrent" "PIX5 eCurrent" "PIX5 hCurrent"
    "PIX5 TotalCurrent" "PIX5 Charge" "PIX6 OuterVoltage" "PIX6 InnerVoltage" "PIX6 QuasiFermiPotential"
    "PIX6 DisplacementCurrent" "PIX6 eCurrent" "PIX6 hCurrent" "PIX6 TotalCurrent" "PIX6 Charge" ]
  functions = [
    Time
    OuterVoltage InnerVoltage QuasiFermiPotential DisplacementCurrent eCurrent
    hCurrent TotalCurrent Charge OuterVoltage InnerVoltage
    QuasiFermiPotential DisplacementCurrent eCurrent hCurrent TotalCurrent
    Charge OuterVoltage InnerVoltage QuasiFermiPotential DisplacementCurrent
    eCurrent hCurrent TotalCurrent Charge OuterVoltage
    InnerVoltage QuasiFermiPotential DisplacementCurrent eCurrent hCurrent
    TotalCurrent Charge OuterVoltage InnerVoltage QuasiFermiPotential
    DisplacementCurrent eCurrent hCurrent TotalCurrent Charge
    OuterVoltage InnerVoltage QuasiFermiPotential DisplacementCurrent eCurrent
    hCurrent TotalCurrent Charge OuterVoltage InnerVoltage
    QuasiFermiPotential DisplacementCurrent eCurrent hCurrent TotalCurrent
    Charge OuterVoltage InnerVoltage QuasiFermiPotential DisplacementCurrent
    eCurrent hCurrent TotalCurrent Charge OuterVoltage
    InnerVoltage QuasiFermiPotential DisplacementCurrent eCurrent hCurrent
    TotalCurrent Charge OuterVoltage InnerVoltage QuasiFermiPotential
    DisplacementCurrent eCurrent hCurrent TotalCurrent Charge ]
}

Data {
      0.00000000000000E+00
      0.00000000000000E+00   0.00000000000000E+00   0.00000000000000E+00  -7.41639767642022E-30  -1.53131048027052E-19
     -4.31859537534063E-15  -4.31874850638866E-15  -3.17924148555976E-15   2.00000000000000E+02   2.00000000000000E+02
      0.00000000000000E+00   4.59038758226216E-25   1.72334039160611E-11   1.02915414771785E-14   1.72436954575388E-11
      1.68177494282920E-14   0.00000000000000E+00   0.00000000000000E+00   0.00000000000000E+00  -1.07125744214959E-29
     -1.53722664892220E-19  -4.81527078308231E-15  -4.81542450574721E-15  -3.20780957579879E-15   0.00000000000000E+00
      0.00000000000000E+00   0.00000000000000E+00   6.75056997391493E-27  -1.71999968914495E-11  -1.05034289609497E-14
     -1.72105003204104E-11   7.07088673081416E-15   0.00000000000000E+00   0.00000000000000E+00   0.00000000000000E+00
      2.88415465194120E-30  -7.62087392901926E-20  -2.46869454736120E-15  -2.46877075610049E-15  -1.61914747595537E-15
      0.00000000000000E+00   0.00000000000000E+00   0.00000000000000E+00  -1.64808837253783E-30  -1.53788914581493E-19
     -4.32533135810606E-15  -4.32548514702064E-15  -3.17225982985196E-15   0.00000000000000E+00   0.00000000000000E+00
      0.00000000000000E+00  -1.07125744214959E-29  -1.53740597260605E-19  -4.31529881004926E-15  -4.31545255064653E-15
     -3.17675365052508E-15   0.00000000000000E+00   0.00000000000000E+00   0.00000000000000E+00  -8.24044186268913E-30
     -1.53731158912797E-19  -4.31641513268356E-15  -4.31656886384248E-15  -3.17760403665464E-15   0.00000000000000E+00
      0.00000000000000E+00   0.00000000000000E+00  -1.31847069803026E-29  -1.89248307215442E-19  -4.31692432986247E-15
     -4.31711357816970E-15  -3.17799024863341E-15   0.00000000000000E+00   0.00000000000000E+00   0.00000000000000E+00
     -1.23606627940337E-29  -1.53132060281153E-19  -4.31742008837359E-15  -4.31757322043388E-15  -3.17836422924232E-15
      1.00000000000000E-13
      0.00000000000000E+00   0.00000000000000E+00   0.00000000000000E+00   3.80570321907106E-07  -1.53108214100408E-19
      2.47975971607976E-06   2.86033003798672E-06  -3.17895545255573E-15   2.00000000000000E+02   2.00000000000000E+02
      0.00000000000000E+00  -1.97698190808964E-04   2.00784985130239E-04   1.58177792888580E-13   3.08679447945219E-06
      1.68180581060156E-14   0.00000000000000E+00   0.00000000000000E+00   0.00000000000000E+00   2.15211436744573E-07
     -1.53686131117154E-19   4.21914582974021E-06   4.43435726648463E-06  -3.20736613976502E-15   0.00000000000000E+00
      0.00000000000000E+00   0.00000000000000E+00  -2.11310376013644E-04  -1.62031665181331E-11  -4.33824130123930E-06
     -2.15648633518049E-04   7.04932187242405E-15   0.00000000000000E+00   0.00000000000000E+00   0.00000000000000E+00
     -3.12772306544446E-05  -7.58465052069390E-20   2.16811071886413E-04   1.85533841231968E-04  -1.60059409992550E-15
      0.00000000000000E+00   0.00000000000000E+00   0.00000000000000E+00   1.38631547559848E-05  -1.53699961144643E-19
      2.63781196808307E-06   1.65009667240677E-05  -3.17060973037827E-15   0.00000000000000E+00   0.00000000000000E+00
      0.00000000000000E+00   3.00105279480068E-06  -1.53722764062858E-19  -1.23651695716444E-07   2.87740109908408E-06
     -3.17646590940542E-15   0.00000000000000E+00   0.00000000000000E+00   0.00000000000000E+00   1.30883134808871E-06
     -1.53718851276950E-19   3.27751005080207E-07   1.63658235316877E-06  -3.17744037797463E-15   0.00000000000000E+00
      0.00000000000000E+00   0.00000000000000E+00   7.51915500491153E-07  -1.89233710375078E-19   1.12640868214795E-06
      1.87832418263892E-06  -3.17780241601558E-15   0.00000000000000E+00   0.00000000000000E+00   0.00000000000000E+00
      5.03026819620346E-07  -1.53115035886330E-19   1.68074047566506E-06   2.18376729528525E-06  -3.17814585241946E-15
      2.00000000000000E-13
      0.00000000000000E+00   0.00000000000000E+00   0.00000000000000E+00  -7.77134909331487E-08  -1.53135473245355E-19
     -6.98987202597308E-07  -7.76700693530610E-07  -3.17903312251475E-15   2.00000000000000E+02   2.00000000000000E+02
      0.00000000000000E+00  -1.91587849917989E-05   1.77353132598351E-05   1.48491613944347E-13  -1.42347158347222E-06
      1.68179157571328E-14   0.00000000000000E+00   0.00000000000000E+00   0.00000000000000E+00  -1.01089302557804E-07
     -1.53720450206768E-19   1.84235766119394E-07   8.31464635614355E-08  -3.20735782451627E-15   0.00000000000000E+00
      0.00000000000000E+00   0.00000000000000E+00  -4.64326389794680E-08  -1.62404613814095E-11  -2.74424616589491E-06
     -2.79069504533576E-06   7.04904280341737E-15   0.00000000000000E+00   0.00000000000000E+00   0.00000000000000E+00
     -4.44354767762840E-06  -7.72683017359049E-20   4.80843142879480E-05   4.36407666103195E-05  -1.59623003673838E-15
      0.00000000000000E+00   0.00000000000000E+00   0.00000000000000E+00  -7.08401578726058E-07  -1.53934276787607E-19
     -2.53027370957632E-05  -2.60111386744894E-05  -3.17321083434182E-15   0.00000000000000E+00   0.00000000000000E+00
      0.00000000000000E+00  -1.58238846894964E-07  -1.53778779321043E-19  -6.64575811439683E-06  -6.80399696129195E-06
     -3.17714630677564E-15   0.00000000000000E+00   0.00000000000000E+00   0.00000000000000E+00  -7.59301292056052E-08
     -1.53746961761114E-19  -2.89471075299838E-06  -2.97064088220414E-06  -3.17773744107634E-15   0.00000000000000E+00
      0.00000000000000E+00   0.00000000000000E+00  -6.64638357071434E-08  -1.89258497640397E-19  -1.72033146685353E-06
     -1.78679530256086E-06  -3.17798109504761E-15   0.00000000000000E+00   0.00000000000000E+00   0.00000000000000E+00
     -6.66749359591917E-08  -1.53139055664456E-19  -1.09379899497107E-06  -1.16047393093042E-06  -3.17826189953931E-15
      3.00000000000000E-13
      0.00000000000000E+00   0.00000000000000E+00   0.00000000000000E+00   7.27598509208172E-09  -1.53133531118887E-19
     -4.38208448793124E-07  -4.30932463701195E-07  -3.17907621556906E-15   2.00000000000000E+02   2.00000000000000E+02
      0.00000000000000E+00  -6.12622048861420E-06   5.73126464087350E-06   1.44217321495499E-13  -3.94955703523370E-07
      1.68178762598380E-14   0.00000000000000E+00   0.00000000000000E+00   0.00000000000000E+00  -8.44594783702928E-10
     -1.53721225489018E-19   1.18498248758630E-07   1.17653653974774E-07  -3.20734605836696E-15   0.00000000000000E+00
      0.00000000000000E+00   0.00000000000000E+00  -2.67245695878290E-09  -1.62525004126499E-11  -1.63576265424903E-06
     -1.63845136370822E-06   7.04887895554334E-15   0.00000000000000E+00   0.00000000000000E+00   0.00000000000000E+00
     -5.56386717692301E-07  -7.74513322574267E-20   2.59037999155984E-05   2.53474131979060E-05  -1.59369531211750E-15
      0.00000000000000E+00   0.00000000000000E+00   0.00000000000000E+00   2.28932950652468E-07  -1.53863823317376E-19
     -1.67307945417892E-05  -1.65018615911369E-05  -3.17486100586924E-15   0.00000000000000E+00   0.00000000000000E+00
      0.00000000000000E+00   8.08989698770582E-08  -1.53754392074920E-19  -3.62611528191955E-06  -3.54521631204265E-06
     -3.17750082525990E-15   0.00000000000000E+00   0.00000000000000E+00   0.00000000000000E+00   3.75135717566123E-08
     -1.53735951627104E-19  -1.50879361040978E-06  -1.47128003865332E-06  -3.17788456775607E-15   0.00000000000000E+00
      0.00000000000000E+00   0.00000000000000E+00   2.17985998748099E-08  -1.89252054673451E-19  -9.02300056570189E-07
     -8.80501456695569E-07  -3.17806914450420E-15   0.00000000000000E+00   0.00000000000000E+00   0.00000000000000E+00
      1.30180017754988E-08  -1.53135359248305E-19  -6.14885924196956E-07  -6.01867922421610E-07  -3.17832208593841E-15
      4.00000000000000E-13
      0.00000000000000E+00   0.00000000000000E+00   0.00000000000000E+00   4.51531265362853E-09  -1.53132306502837E-19
     -2.74918361901021E-07  -2.70403049247546E-07  -3.17910325562368E-15   2.00000000000000E+02   2.00000000000000E+02
      0.00000000000000E+00  -3.34297087139289E-06   3.22623313748311E-06   1.41616014962498E-13  -1.16737592293766E-07
      1.68178645843544E-14   0.00000000000000E+00   0.00000000000000E+00   0.00000000000000E+00  -4.61835011502192E-10
     -1.53721624354170E-19   8.57644584183596E-08   8.53026234067037E-08  -3.20733752720458E-15   0.00000000000000E+00
      0.00000000000000E+00   0.00000000000000E+00  -3.08234299689558E-09  -1.62636786716951E-11  -9.91879606225569E-07
     -9.94978212901137E-07   7.04877945285385E-15   0.00000000000000E+00   0.00000000000000E+00   0.00000000000000E+00
     -2.55067245782401E-07  -7.75343292198851E-20   1.57282932918240E-05   1.54732260460415E-05  -1.59214800827652E-15
      0.00000000000000E+00   0.00000000000000E+00   0.00000000000000E+00   1.59521273315099E-07  -1.53814417217348E-19
     -1.06712812726126E-05  -1.05117599992976E-05  -3.17591216414849E-15   0.00000000000000E+00   0.00000000000000E+00
      0.00000000000000E+00   4.19176328712414E-08  -1.53741774143868E-19  -2.04668597956373E-06  -2.00476834669264E-06
     -3.17770129843048E-15   0.00000000000000E+00   0.00000000000000E+00   0.00000000000000E+00   1.80576542892646E-08
     -1.53730696254367E-19  -8.36960402913691E-07  -8.18902748624580E-07  -3.17796645649315E-15   0.00000000000000E+00
      0.00000000000000E+00   0.00000000000000E+00   1.06018515352315E-08  -1.89248949932047E-19  -5.03107535147005E-07
     -4.92505683611962E-07  -3.17811839426124E-15   0.00000000000000E+00   0.00000000000000E+00   0.00000000000000E+00
      7.06165345659238E-09  -1.53133373724590E-19  -3.55534690277587E-07  -3.48473036821148E-07  -3.17835693277009E-15
      5.00000000000000E-13
      0.00000000000000E+00   0.00000000000000E+00   0.00000000000000E+00   2.60760062437201E-09  -1.53131603065571E-19
     -1.81162022133625E-07  -1.78554421509406E-07  -3.17912111077481E-15   2.00000000000000E+02   2.00000000000000E+02
      0.00000000000000E+00  -2.23743664025041E-06   2.20346928718231E-06   1.39757980816569E-13  -3.39672133101196E-08
      1.68178611859087E-14   0.00000000000000E+00   0.00000000000000E+00   0.00000000000000E+00  -6.08934551479580E-10
     -1.53721954311198E-19   5.40756064227217E-08   5.34666718710884E-08  -3.20733217956102E-15   0.00000000000000E+00
      0.00000000000000E+00   0.00000000000000E+00  -5.32944375320481E-09  -1.62755224097232E-11  -6.11882286519966E-07
     -6.17228005795581E-07   7.04871772385758E-15   0.00000000000000E+00   0.00000000000000E+00   0.00000000000000E+00
     -1.48068656157367E-07  -7.75817056883240E-20   9.85251030008977E-06   9.70444164393232E-06  -1.59117758427002E-15
      0.00000000000000E+00   0.00000000000000E+00   0.00000000000000E+00   1.00590728953832E-07  -1.53783292873069E-19
     -6.83150736480001E-06  -6.73091663584634E-06  -3.17658523608503E-15   0.00000000000000E+00   0.00000000000000E+00
      0.00000000000000E+00   2.19119547473821E-08  -1.53735235983140E-19  -1.22017560013676E-06  -1.19826364538953E-06
     -3.17782112080063E-15   0.00000000000000E+00   0.00000000000000E+00   0.00000000000000E+00   9.10447941957980E-09
     -1.53728090025458E-19  -4.99129306611578E-07  -4.90024827192152E-07  -3.17801545730068E-15   0.00000000000000E+00
      0.00000000000000E+00   0.00000000000000E+00   5.39297389920802E-09  -1.89247398896497E-19  -3.00976912686428E-07
     -2.95583938787409E-07  -3.17814795176485E-15   0.00000000000000E+00   0.00000000000000E+00   0.00000000000000E+00
      3.80242815239450E-09  -1.53132324235196E-19  -2.17172056061370E-07  -2.13369627909128E-07  -3.17837826920917E-15
      6.00000000000000E-13
      0.00000000000000E+00   0.00000000000000E+00   0.00000000000000E+00   1.63456143273818E-09  -1.53131155807713E-19
     -1.22379309462898E-07  -1.20744748030313E-07  -3.17913318493032E-15   2.00000000000000E+02   2.00000000000000E+02
      0.00000000000000E+00  -1.65772694819941E-06   1.64905245405814E-06   1.38308050809861E-13  -8.67435583321211E-09
      1.68178603167487E-14   0.00000000000000E+00   0.00000000000000E+00   0.00000000000000E+00  -4.49504071844034E-10
     -1.53722170485501E-19   3.19088529063109E-08   3.14593488343131E-08  -3.20732903259819E-15   0.00000000000000E+00
      0.00000000000000E+00   0.00000000000000E+00  -6.44876648600646E-09  -1.62873990028982E-11  -3.83618720885643E-07
     -3.90083774770652E-07   7.04867870849737E-15   0.00000000000000E+00   0.00000000000000E+00   0.00000000000000E+00
     -8.96898152739250E-08  -7.76098655423778E-20   6.30394855175328E-06   6.21425873647928E-06  -1.59055617954626E-15
      0.00000000000000E+00   0.00000000000000E+00   0.00000000000000E+00   6.32302939977473E-08  -1.53763774331273E-19
     -4.41253402590255E-06  -4.34930373190495E-06  -3.17702014542339E-15   0.00000000000000E+00   0.00000000000000E+00
      0.00000000000000E+00   1.22077124454947E-08  -1.53731620788741E-19  -7.60133917154292E-07  -7.47926204708951E-07
     -3.17789590921151E-15   0.00000000000000E+00   0.00000000000000E+00   0.00000000000000E+00   5.02906909292984E-09
     -1.53726666139979E-19  -3.13189080644764E-07  -3.08160011551988E-07  -3.17804627153653E-15   0.00000000000000E+00
      0.00000000000000E+00   0.00000000000000E+00   3.00931459137420E-09  -1.89246541457749E-19  -1.88597282088117E-07
     -1.85587967496932E-07  -3.17816650961955E-15   0.00000000000000E+00   0.00000000000000E+00   0.00000000000000E+00
      2.20354088735249E-09  -1.53131718232804E-19  -1.37440831886451E-07  -1.35237290999251E-07  -3.17839179238036E-15
      7.00000000000000E-13
      0.00000000000000E+00   0.00000000000000E+00   0.00000000000000E+00   1.06864048173798E-09  -1.53130856439937E-19
     -8.38324639158704E-08  -8.27638234342856E-08  -3.17914146097364E-15   2.00000000000000E+02   2.00000000000000E+02
      0.00000000000000E+00  -1.30372092142783E-06   1.30270584177887E-06   1.37113418346873E-13  -1.01494253554118E-09
      1.68178602135301E-14   0.00000000000000E+00   0.00000000000000E+00   0.00000000000000E+00  -2.83124693321236E-10
     -1.53722298276605E-19   1.80604081630341E-08   1.77772834695592E-08  -3.20732725380585E-15   0.00000000000000E+00
      0.00000000000000E+00   0.00000000000000E+00  -6.69249094131333E-09  -1.62988150864310E-11  -2.44558595825618E-07
     -2.51267385582018E-07   7.04865357434225E-15   0.00000000000000E+00   0.00000000000000E+00   0.00000000000000E+00
     -5.54854064511306E-08  -7.76268765665792E-20   4.11234917361637E-06   4.05686376716517E-06  -1.59015051506381E-15
      0.00000000000000E+00   0.00000000000000E+00   0.00000000000000E+00   3.98526965491299E-08  -1.53751511292761E-19
     -2.88631307448771E-06  -2.84646037793874E-06  -3.17730476956550E-15   0.00000000000000E+00   0.00000000000000E+00
      0.00000000000000E+00   7.15278746245383E-09  -1.53729514152664E-19  -4.90960165442144E-07  -4.83807377979844E-07
     -3.17794428559613E-15   0.00000000000000E+00   0.00000000000000E+00   0.00000000000000E+00   2.96286012364914E-09
     -1.53725830603045E-19  -2.03953879329685E-07  -2.00991019206189E-07  -3.17806636881260E-15   0.00000000000000E+00
      0.00000000000000E+00   0.00000000000000E+00   1.78281748910399E-09  -1.89246034543987E-19  -1.22181946786306E-07
     -1.20399129297392E-07  -3.17817854855578E-15   0.00000000000000E+00   0.00000000000000E+00   0.00000000000000E+00
      1.33538372281213E-09  -1.53131349502080E-19  -8.92723783475254E-08  -8.79369946248664E-08  -3.17840058549896E-15
      8.00000000000000E-13
      0.00000000000000E+00   0.00000000000000E+00   0.00000000000000E+00   7.12445324452732E-10  -1.53130652491268E-19
     -5.80403308865514E-08  -5.73278855622518E-08  -3.17914719340927E-15   2.00000000000000E+02   2.00000000000000E+02
      0.00000000000000E+00  -1.06665136311938E-06   1.06785132171328E-06   1.36092641702778E-13   1.20009468654738E-09
      1.68178603318152E-14   0.00000000000000E+00   0.00000000000000E+00   0.00000000000000E+00  -1.66634688873985E-10
     -1.53722368351735E-19   9.82632221851469E-09   9.65968752948698E-09  -3.20732628674691E-15   0.00000000000000E+00
      0.00000000000000E+00   0.00000000000000E+00  -6.46008299179200E-09  -1.63095471299141E-11  -1.58802398708049E-07
     -1.65278791246971E-07   7.04863703884097E-15   0.00000000000000E+00   0.00000000000000E+00   0.00000000000000E+00
     -3.48663146949513E-08  -7.76372270738761E-20   2.73657662726283E-06   2.70171031256780E-06  -1.58988036651568E-15
      0.00000000000000E+00   0.00000000000000E+00   0.00000000000000E+00   2.52566839013721E-08  -1.53743770509850E-19
     -1.91861339308627E-06  -1.89335670918505E-06  -3.17749408276598E-15   0.00000000000000E+00   0.00000000000000E+00
      0.00000000000000E+00   4.35781822393323E-09  -1.53728234919220E-19  -3.27172221821634E-07  -3.22814403597855E-07
     -3.17797656258498E-15   0.00000000000000E+00   0.00000000000000E+00   0.00000000000000E+00   1.82336283774680E-09
     -1.53725315624603E-19  -1.36851733648750E-07  -1.35028370811157E-07  -3.17807986978213E-15   0.00000000000000E+00
      0.00000000000000E+00   0.00000000000000E+00   1.09722437676641E-09  -1.89245721068853E-19  -8.13710193707756E-08
     -8.02737949941984E-08  -3.17818657493477E-15   0.00000000000000E+00   0.00000000000000E+00   0.00000000000000E+00
      8.31776328243736E-10  -1.53131116555521E-19  -5.93219157513687E-08  -5.84901394232781E-08  -3.17840643391631E-15
      9.00000000000000E-13
      0.00000000000000E+00   0.00000000000000E+00   0.00000000000000E+00   4.79641220614541E-10  -1.53130511583762E-19
     -4.06159512322079E-08  -4.01363100117465E-08  -3.17915120667743E-15   2.00000000000000E+02   2.00000000000000E+02
      0.00000000000000E+00  -8.98112139057927E-07   8.99889972869998E-07   1.35197413272199E-13   1.77796900948422E-09
      1.68178605078877E-14   0.00000000000000E+00   0.00000000000000E+00   0.00000000000000E+00  -9.43265359979869E-11
     -1.53722404677902E-19   5.05794328673912E-09   4.96361675058741E-09  -3.20732578927525E-15   0.00000000000000E+00
      0.00000000000000E+00   0.00000000000000E+00  -6.01107674643109E-09  -1.63195382856202E-11  -1.05293090468268E-07
     -1.11320486752985E-07   7.04862589911264E-15   0.00000000000000E+00   0.00000000000000E+00   0.00000000000000E+00
     -2.22100706347649E-08  -7.76435310170617E-20   1.86079069700115E-06   1.83858062636630E-06  -1.58969653142547E-15
      0.00000000000000E+00   0.00000000000000E+00   0.00000000000000E+00   1.61314432969812E-08  -1.53738850667479E-19
     -1.30044242141016E-06  -1.28431097811333E-06  -3.17762249100296E-15   0.00000000000000E+00   0.00000000000000E+00
      0.00000000000000E+00   2.73740302438441E-09  -1.53727433125914E-19  -2.24381911996405E-07  -2.21644508972174E-07
     -3.17799872251514E-15   0.00000000000000E+00   0.00000000000000E+00   0.00000000000000E+00   1.15638501477086E-09
     -1.53724987267476E-19  -9.43355904503712E-08  -9.31792054357541E-08  -3.17808918580557E-15   0.00000000000000E+00
      0.00000000000000E+00   0.00000000000000E+00   6.92990871333226E-10  -1.89245522152592E-19  -5.56222186604134E-08
     -5.49292277892694E-08  -3.17819206684027E-15   0.00000000000000E+00   0.00000000000000E+00   0.00000000000000E+00
      5.27999133051124E-10  -1.53130966792655E-19  -4.03294941546339E-08  -3.98014950217359E-08  -3.17841041345815E-15
      1.00000000000000E-12
      0.00000000000000E+00   0.00000000000000E+00   0.00000000000000E+00   3.24936294256045E-10  -1.53130413613718E-19
     -2.87767526414975E-08  -2.84518163473946E-08  -3.17915405148904E-15   2.00000000000000E+02   2.00000000000000E+02
      0.00000000000000E+00  -7.73142783585666E-07   7.75045153415899E-07   1.34396835723503E-13   1.90250422706817E-09
      1.68178606964136E-14   0.00000000000000E+00   0.00000000000000E+00   0.00000000000000E+00  -5.17604201457534E-11
     -1.53722420578229E-19   2.34423486034952E-09   2.29247444005004E-09  -3.20732555890217E-15   0.00000000000000E+00
      0.00000000000000E+00   0.00000000000000E+00  -5.48999322880853E-09  -1.63288148658002E-11  -7.14925407633397E-08
     -7.69988628070140E-08   7.04861819158605E-15   0.00000000000000E+00   0.00000000000000E+00   0.00000000000000E+00
     -1.43359624739115E-08  -7.76473472425931E-20   1.29577287444507E-06   1.28143691197108E-06  -1.58956841113083E-15
      0.00000000000000E+00   0.00000000000000E+00   0.00000000000000E+00   1.04046614092704E-08  -1.53735696955910E-19
     -9.01729632401148E-07  -8.91324970992031E-07  -3.17771160036908E-15   0.00000000000000E+00   0.00000000000000E+00
      0.00000000000000E+00   1.76252120805913E-09  -1.53726916053286E-19  -1.58237496963121E-07  -1.56474975755215E-07
     -3.17801436544183E-15   0.00000000000000E+00   0.00000000000000E+00   0.00000000000000E+00   7.49931295620839E-10
     -1.53724771995059E-19  -6.67739622296836E-08  -6.60240309342164E-08  -3.17809578629006E-15   0.00000000000000E+00
      0.00000000000000E+00   0.00000000000000E+00   4.46404059219111E-10  -1.89245392494632E-19  -3.90482424249544E-08
     -3.86018383659246E-08  -3.17819592599468E-15   0.00000000000000E+00   0.00000000000000E+00   0.00000000000000E+00
      3.40345116895131E-10  -1.53130868120454E-19  -2.80957406364147E-08  -2.77553955196728E-08  -3.17841318838204E-15
      1.10000000000000E-12
      0.00000000000000E+00   0.00000000000000E+00   0.00000000000000E+00   2.21354603884806E-10  -1.53130345029669E-19
     -2.06925437440347E-08  -2.04711891403031E-08  -3.17915609823260E-15   2.00000000000000E+02   2.00000000000000E+02
      0.00000000000000E+00  -6.77434239186974E-07   6.79362480252354E-07   1.33670043722537E-13   1.92837473542300E-09
      1.68178608875267E-14   0.00000000000000E+00   0.00000000000000E+00   0.00000000000000E+00  -2.74566931538747E-11
     -1.53722426632844E-19   8.23490156673242E-10   7.96033463365645E-10  -3.20732547816036E-15   0.00000000000000E+00
      0.00000000000000E+00   0.00000000000000E+00  -4.97103151202413E-09  -1.63374383852068E-11  -4.98512433988973E-08
     -5.48386123493067E-08   7.04861270018791E-15   0.00000000000000E+00   0.00000000000000E+00   0.00000000000000E+00
     -9.38164640239694E-09  -7.76496212132177E-20   9.26164443501665E-07   9.16782797099191E-07  -1.58947675662798E-15
      0.00000000000000E+00   0.00000000000000E+00   0.00000000000000E+00   6.79056862019561E-09  -1.53733654367760E-19
     -6.41540924664445E-07  -6.34750356044403E-07  -3.17777505208325E-15   0.00000000000000E+00   0.00000000000000E+00
      0.00000000000000E+00   1.15901179363187E-09  -1.53726576160020E-19  -1.14755571558195E-07  -1.13596559764717E-07
     -3.17802572048964E-15   0.00000000000000E+00   0.00000000000000E+00   0.00000000000000E+00   4.95403082923419E-10
     -1.53724628373296E-19  -4.85675920483729E-08  -4.80721889656032E-08  -3.17810059157424E-15   0.00000000000000E+00
      0.00000000000000E+00   0.00000000000000E+00   2.92547333416468E-10  -1.89245306254139E-19  -2.81930753119963E-08
     -2.79005279787691E-08  -3.17819871500896E-15   0.00000000000000E+00   0.00000000000000E+00   0.00000000000000E+00
      2.22555247491767E-10  -1.53130801928359E-19  -2.01003262034582E-08  -1.98777709561195E-08  -3.17841517553754E-15
      1.20000000000000E-12
      0.00000000000000E+00   0.00000000000000E+00   0.00000000000000E+00   1.51739327007903E-10  -1.53130296615454E-19
     -1.51414317173075E-08  -1.49896923904527E-08  -3.17915759682249E-15   2.00000000000000E+02   2.00000000000000E+02
      0.00000000000000E+00  -6.02156312917386E-07   6.04107360912573E-07   1.33002345293740E-13   1.95118099753170E-09
      1.68178610809204E-14   0.00000000000000E+00   0.00000000000000E+00   0.00000000000000E+00  -1.38623551466644E-11
     -1.53722426746599E-19  -1.29515300368439E-11  -2.68138853372308E-11  -3.20732547969240E-15   0.00000000000000E+00
      0.00000000000000E+00   0.00000000000000E+00  -4.48862260966620E-09  -1.63454808408931E-11  -3.57823361154746E-08
     -4.02873042059817E-08   7.04860866406658E-15   0.00000000000000E+00   0.00000000000000E+00   0.00000000000000E+00
     -6.23208653857836E-09  -7.76509319577550E-20   6.80726916895243E-07   6.74494830356587E-07  -1.58940933127149E-15
      0.00000000000000E+00   0.00000000000000E+00   0.00000000000000E+00   4.49367549714833E-09  -1.53732314629228E-19
     -4.69391116815075E-07  -4.64897441318081E-07  -3.17782151836953E-15   0.00000000000000E+00   0.00000000000000E+00
      0.00000000000000E+00   7.77019295114610E-10  -1.53726348260566E-19  -8.56087558792555E-08  -8.48317365842946E-08
     -3.17803419902669E-15   0.00000000000000E+00   0.00000000000000E+00   0.00000000000000E+00   3.32953538908978E-10
     -1.53724529696679E-19  -3.63303697237994E-08  -3.59974161850441E-08  -3.17810418936877E-15   0.00000000000000E+00
      0.00000000000000E+00   0.00000000000000E+00   1.94992254715632E-10  -1.89245247681480E-19  -2.09620442107415E-08
     -2.07670519562151E-08  -3.17820079066867E-15   0.00000000000000E+00   0.00000000000000E+00   0.00000000000000E+00
      1.47705393828778E-10  -1.53130756648842E-19  -1.47962602182369E-08  -1.46485548245612E-08  -3.17841663976692E-15
      1.30000000000000E-12
      0.00000000000000E+00   0.00000000000000E+00   0.00000000000000E+00   1.04797953871750E-10  -1.53130262076098E-19
     -1.13031566946798E-08  -1.11983587409611E-08  -3.17915871627594E-15   2.00000000000000E+02   2.00000000000000E+02
      0.00000000000000E+00  -5.41577115541140E-07   5.43566139468292E-07   1.32383042607050E-13   1.98915631019522E-09
      1.68178612781116E-14   0.00000000000000E+00   0.00000000000000E+00   0.00000000000000E+00  -6.35565793966949E-12
     -1.53722423852947E-19  -4.60006802053019E-10  -4.66362460146411E-10  -3.20732552516981E-15   0.00000000000000E+00
      0.00000000000000E+00   0.00000000000000E+00  -4.05574590777162E-09  -1.63530129023456E-11  -2.64766451378797E-08
     -3.05487440585537E-08   7.04860560197651E-15   0.00000000000000E+00   0.00000000000000E+00   0.00000000000000E+00
     -4.20927642997257E-09  -7.76516377220656E-20   5.15011769245107E-07   5.10802492815057E-07  -1.58935827547604E-15
      0.00000000000000E+00   0.00000000000000E+00   0.00000000000000E+00   3.02178288507293E-09  -1.53731424229214E-19
     -3.53655189060273E-07  -3.50633406175354E-07  -3.17785655815361E-15   0.00000000000000E+00   0.00000000000000E+00
      0.00000000000000E+00   5.30857857402815E-10  -1.53726191613227E-19  -6.56965812414653E-08  -6.51657233842162E-08
     -3.17804071094032E-15   0.00000000000000E+00   0.00000000000000E+00   0.00000000000000E+00   2.27689217321164E-10
     -1.53724461882610E-19  -2.79598540594756E-08  -2.77321648423081E-08  -3.17810696062846E-15   0.00000000000000E+00
      0.00000000000000E+00   0.00000000000000E+00   1.32282664912612E-10  -1.89245207004626E-19  -1.60588300950973E-08
     -1.59265474303740E-08  -3.17820238227249E-15   0.00000000000000E+00   0.00000000000000E+00   0.00000000000000E+00
      9.96262379111771E-11  -1.53130725010207E-19  -1.12199684340977E-08  -1.11203421963397E-08  -3.17841775117149E-15
      1.40000000000000E-12