DF-ISE text

Info {
  version   = 1.0
  type      = xyplot
  datasets  = [
    "time"
    "PIX7 OuterVoltage" "PIX7 InnerVoltage" "PIX7 QuasiFermiPotential" "PIX7 DisplacementCurrent" "PIX7 eCurrent"
    "PIX7 hCurrent" "PIX7 TotalCurrent" "PIX7 Charge" "BACK OuterVoltage" "BACK InnerVoltage"
    "BACK QuasiFermiPotential" "BACK DisplacementCurrent" "BACK eCurrent" "BACK hCurrent" "BACK TotalCurrent"
    "BACK Charge" "PIX8 OuterVoltage" "PIX8 InnerVoltage" "PIX8 QuasiFermiPotential" "PIX8 DisplacementCurrent"
    "PIX8 eCurrent" "PIX8 hCurrent" "PIX8 TotalCurrent" "PIX8 Charge" "PIX9 OuterVoltage"
    "PIX9 InnerVoltage" "PIX9 QuasiFermiPotential" "PIX9 DisplacementCurrent" "PIX9 eCurrent" "PIX9 hCurrent"
    "PIX9 TotalCurrent" "PIX9 Charge" "PIX1 OuterVoltage" "PIX1 InnerVoltage" "PIX1 QuasiFermiPotential"
    "PIX1 DisplacementCurrent" "PIX1 eCurrent" "PIX1 hCurrent" "PIX1 TotalCurrent" "PIX1 Charge"
    "PIX2 OuterVoltage" "PIX2 InnerVoltage" "PIX2 QuasiFermiPotential" "PIX2 DisplacementCurrent" "PIX2 eCurrent"
    "PIX2 hCurrent" "PIX2 TotalCurrent" "PIX2 Charge" "PIX3 OuterVoltage" "PIX3 InnerVoltage"
    "PIX3 QuasiFermiPotential" "PIX3 DisplacementCurrent" "PIX3 eCurrent" "PIX3 hCurrent" "PIX3 TotalCurrent"
    "PIX3 Charge" "PIX4 OuterVoltage" "PIX4 InnerVoltage" "PIX4 QuasiFermiPotential" "PIX4 DisplacementCurrent"
    "PIX4 eCurrent" "PIX4 hCurrent" "PIX4 TotalCurrent" "PIX4 Charge" "PIX5 OuterVoltage"
    "PIX5 InnerVoltage" "PIX5 QuasiFermiPotential" "PIX5 DisplacementCurrent" "PIX5 eCurrent" "PIX5 hCurrent"
    "PIX5 TotalCurrent" "PIX5 Charge" "PIX6 OuterVoltage" "PIX6 InnerVoltage" "PIX6 QuasiFermiPotential"
    "PIX6 DisplacementCurrent" "PIX6 eCurrent" "PIX6 hCurrent" "PIX6 TotalCurrent" "PIX6 Charge" ]
  functions = [
    Time
    OuterVoltage InnerVoltage QuasiFermiPotential DisplacementCurrent eCurrent
    hCurrent TotalCurrent Charge OuterVoltage InnerVoltage
    QuasiFermiPotential DisplacementCurrent eCurrent hCurrent TotalCurrent
    Charge OuterVoltage InnerVoltage QuasiFermiPotential DisplacementCurrent
    eCurrent hCurrent TotalCurrent Charge OuterVoltage
    InnerVoltage QuasiFermiPotential DisplacementCurrent eCurrent hCurrent
    TotalCurrent Charge OuterVoltage InnerVoltage QuasiFermiPotential
    DisplacementCurrent eCurrent hCurrent TotalCurrent Charge
    OuterVoltage InnerVoltage QuasiFermiPotential DisplacementCurrent eCurrent
    hCurrent TotalCurrent Charge OuterVoltage InnerVoltage
    QuasiFermiPotential DisplacementCurrent eCurrent hCurrent TotalCurrent
    Charge OuterVoltage InnerVoltage QuasiFermiPotential DisplacementCurrent
    eCurrent hCurrent TotalCurrent Charge OuterVoltage
    InnerVoltage QuasiFermiPotential DisplacementCurrent eCurrent hCurrent
    TotalCurrent Charge OuterVoltage InnerVoltage QuasiFermiPotential
    DisplacementCurrent eCurrent hCurrent TotalCurrent Charge ]
}

Data {
      0.00000000000000E+00
      0.00000000000000E+00   0.00000000000000E+00   0.00000000000000E+00  -7.41639767642022E-30  -1.53131048027052E-19
     -4.31859537534063E-15  -4.31874850638866E-15  -3.17924148555976E-15   2.00000000000000E+02   2.00000000000000E+02
      0.00000000000000E+00   4.62414043213173E-25   1.72234008433700E-11   2.02946141683473E-14   1.72436954575388E-11
      1.68177494282920E-14   0.00000000000000E+00   0.00000000000000E+00   0.00000000000000E+00  -1.07125744214959E-29
     -1.53722664892220E-19  -4.81527078308231E-15  -4.81542450574721E-15  -3.20780957579879E-15   0.00000000000000E+00
      0.00000000000000E+00   0.00000000000000E+00   6.75056997391493E-27  -1.71999968914495E-11  -1.05034289609497E-14
     -1.72105003204104E-11   7.07088673081416E-15   0.00000000000000E+00   0.00000000000000E+00   0.00000000000000E+00
      2.88415465194120E-30  -7.62087392901926E-20  -2.46869454736120E-15  -2.46877075610049E-15  -1.61914747595537E-15
      0.00000000000000E+00   0.00000000000000E+00   0.00000000000000E+00  -1.64808837253783E-30  -1.53788914581493E-19
     -4.32533135810606E-15  -4.32548514702064E-15  -3.17225982985196E-15   0.00000000000000E+00   0.00000000000000E+00
      0.00000000000000E+00  -1.07125744214959E-29  -1.53740597260605E-19  -4.31529881004926E-15  -4.31545255064653E-15
     -3.17675365052508E-15   0.00000000000000E+00   0.00000000000000E+00   0.00000000000000E+00  -8.24044186268913E-30
     -1.53731158912797E-19  -4.31641513268356E-15  -4.31656886384248E-15  -3.17760403665464E-15   0.00000000000000E+00
      0.00000000000000E+00   0.00000000000000E+00  -1.31847069803026E-29  -1.89248307215442E-19  -4.31692432986247E-15
     -4.31711357816970E-15  -3.17799024863341E-15   0.00000000000000E+00   0.00000000000000E+00   0.00000000000000E+00
     -1.23606627940337E-29  -1.53132060281153E-19  -4.31742008837359E-15  -4.31757322043388E-15  -3.17836422924232E-15
      1.00000000000000E-13
      0.00000000000000E+00   0.00000000000000E+00   0.00000000000000E+00   3.80553620121214E-07  -1.53108219456710E-19
      2.47911092447699E-06   2.85966454459805E-06  -3.17895551910504E-15   2.00000000000000E+02   2.00000000000000E+02
      0.00000000000000E+00  -1.97697812687464E-04   2.00797753575992E-04   1.58177896782737E-13   3.09994104670528E-06
      1.68180594206723E-14   0.00000000000000E+00   0.00000000000000E+00   0.00000000000000E+00   2.15198553193257E-07
     -1.53686135222105E-19   4.21864974603732E-06   4.43384829923042E-06  -3.20736619066174E-15   0.00000000000000E+00
      0.00000000000000E+00   0.00000000000000E+00  -2.11310390886401E-04  -1.62031799269093E-11  -4.33845476877711E-06
     -2.15648861858358E-04   7.04932184958961E-15   0.00000000000000E+00   0.00000000000000E+00   0.00000000000000E+00
     -3.12772728293368E-05  -7.58465186662935E-20   2.16809461690489E-04   1.85532188861153E-04  -1.60059426516255E-15
      0.00000000000000E+00   0.00000000000000E+00   0.00000000000000E+00   1.38630760633732E-05  -1.53699986213414E-19
      2.63478314781208E-06   1.64978592111851E-05  -3.17061004112943E-15   0.00000000000000E+00   0.00000000000000E+00
      0.00000000000000E+00   3.00098691813239E-06  -1.53722785038392E-19  -1.26186889029879E-07   2.87480002910236E-06
     -3.17646616951232E-15   0.00000000000000E+00   0.00000000000000E+00   0.00000000000000E+00   1.30878124077231E-06
     -1.53718867222277E-19   3.25823282198764E-07   1.63460452297092E-06  -3.17744057575758E-15   0.00000000000000E+00
      0.00000000000000E+00   0.00000000000000E+00   7.51879086503517E-07  -1.89233722018581E-19   1.12499828132722E-06
      1.87687736783054E-06  -3.17780256069700E-15   0.00000000000000E+00   0.00000000000000E+00   0.00000000000000E+00
      5.03002752447948E-07  -1.53115043597727E-19   1.67980637529077E-06   2.18280912773856E-06  -3.17814594823618E-15
      2.00000000000000E-13
      0.00000000000000E+00   0.00000000000000E+00   0.00000000000000E+00  -7.77142098712139E-08  -1.53135478786710E-19
     -6.99662457043639E-07  -7.77376666915006E-07  -3.17903325666135E-15   2.00000000000000E+02   2.00000000000000E+02
      0.00000000000000E+00  -1.91586852411363E-05   1.77488669210333E-05   1.48491838235131E-13  -1.40981817161112E-06
      1.68179184371307E-14   0.00000000000000E+00   0.00000000000000E+00   0.00000000000000E+00  -1.01089666895876E-07
     -1.53720454412724E-19   1.83724372853492E-07   8.26347059574624E-08  -3.20735792658871E-15   0.00000000000000E+00
      0.00000000000000E+00   0.00000000000000E+00  -4.64370820430230E-08  -1.62404821611501E-11  -2.74446849588253E-06
     -2.79092181840772E-06   7.04904275790457E-15   0.00000000000000E+00   0.00000000000000E+00   0.00000000000000E+00
     -4.44355063680693E-06  -7.72683161283158E-20   4.80825796312829E-05   4.36390289944759E-05  -1.59623037573693E-15
      0.00000000000000E+00   0.00000000000000E+00   0.00000000000000E+00  -7.08407276332642E-07  -1.53934303587574E-19
     -2.53059939744364E-05  -2.60144012507692E-05  -3.17321147135034E-15   0.00000000000000E+00   0.00000000000000E+00
      0.00000000000000E+00  -1.58243390380993E-07  -1.53778801665666E-19  -6.64847449814352E-06  -6.80671788852467E-06
     -3.17714683897506E-15   0.00000000000000E+00   0.00000000000000E+00   0.00000000000000E+00  -7.59332866733022E-08
     -1.53746978658624E-19  -2.89676554306782E-06  -2.97269882974128E-06  -3.17773784465389E-15   0.00000000000000E+00
      0.00000000000000E+00   0.00000000000000E+00  -6.64654885185926E-08  -1.89258509747124E-19  -1.72180611608201E-06
     -1.78827160460079E-06  -3.17798138735911E-15   0.00000000000000E+00   0.00000000000000E+00   0.00000000000000E+00
     -6.66762145144067E-08  -1.53139063725831E-19  -1.09478125545743E-06  -1.16145746997199E-06  -3.17826209370986E-15
      3.00000000000000E-13
      0.00000000000000E+00   0.00000000000000E+00   0.00000000000000E+00   7.27549640040549E-09  -1.53133536790358E-19
     -4.38902324645114E-07  -4.31626828244862E-07  -3.17907641915204E-15   2.00000000000000E+02   2.00000000000000E+02
      0.00000000000000E+00  -6.12613054374889E-06   5.74526631036726E-06   1.44217663157676E-13  -3.80864089163962E-07
      1.68178803489974E-14   0.00000000000000E+00   0.00000000000000E+00   0.00000000000000E+00  -8.44909340128753E-10
     -1.53721229779201E-19   1.17974471565562E-07   1.17129562225279E-07  -3.20734621284852E-15   0.00000000000000E+00
      0.00000000000000E+00   0.00000000000000E+00  -2.67624369424636E-09  -1.62525276435382E-11  -1.63598930371316E-06
     -1.63868179993505E-06   7.04887888698532E-15   0.00000000000000E+00   0.00000000000000E+00   0.00000000000000E+00
     -5.56388308545354E-07  -7.74513471114230E-20   2.59020010031822E-05   2.53456126946367E-05  -1.59369583116624E-15
      0.00000000000000E+00   0.00000000000000E+00   0.00000000000000E+00   2.28929936680700E-07  -1.53863850985297E-19
     -1.67341703949678E-05  -1.65052404582872E-05  -3.17486198076405E-15   0.00000000000000E+00   0.00000000000000E+00
      0.00000000000000E+00   8.08965530441576E-08  -1.53754415112258E-19  -3.62892720127778E-06  -3.54803064823378E-06
     -3.17750163889260E-15   0.00000000000000E+00   0.00000000000000E+00   0.00000000000000E+00   3.75118373963602E-08
     -1.53735969015147E-19  -1.51091663954033E-06  -1.47340480214412E-06  -3.17788518380972E-15   0.00000000000000E+00
      0.00000000000000E+00   0.00000000000000E+00   2.17976709101744E-08  -1.89252067028587E-19  -9.03810867402490E-07
     -8.82013196492505E-07  -3.17806958798950E-15   0.00000000000000E+00   0.00000000000000E+00   0.00000000000000E+00
      1.30172329384346E-08  -1.53135367517919E-19  -6.15897667407944E-07  -6.02880434469662E-07  -3.17832238136004E-15
      4.00000000000000E-13
      0.00000000000000E+00   0.00000000000000E+00   0.00000000000000E+00   4.51479135648362E-09  -1.53132312318539E-19
     -2.75632000778202E-07  -2.71117209421871E-07  -3.17910353062254E-15   2.00000000000000E+02   2.00000000000000E+02
      0.00000000000000E+00  -3.34288227107109E-06   3.24064489881515E-06   1.41616477375889E-13  -1.02237230639462E-07
      1.68178701235500E-14   0.00000000000000E+00   0.00000000000000E+00   0.00000000000000E+00  -4.62193604354213E-10
     -1.53721628747748E-19   8.52263837872171E-08   8.47641901827091E-08  -3.20733773552938E-15   0.00000000000000E+00
      0.00000000000000E+00   0.00000000000000E+00  -3.08611883538296E-09  -1.62637122035937E-11  -9.92111455128440E-07
     -9.95213837676027E-07   7.04877936073111E-15   0.00000000000000E+00   0.00000000000000E+00   0.00000000000000E+00
     -2.55068644364556E-07  -7.75343444739360E-20   1.57264392319681E-05   1.54713705876034E-05  -1.59214871287093E-15
      0.00000000000000E+00   0.00000000000000E+00   0.00000000000000E+00   1.59518628927079E-07  -1.53814445638217E-19
     -1.06747599270770E-05  -1.05152412981501E-05  -3.17591348717257E-15   0.00000000000000E+00   0.00000000000000E+00
      0.00000000000000E+00   4.19154775507071E-08  -1.53741797795461E-19  -2.04958198150478E-06  -2.00766650395422E-06
     -3.17770240187845E-15   0.00000000000000E+00   0.00000000000000E+00   0.00000000000000E+00   1.80560541610558E-08
     -1.53730714092541E-19  -8.39145284228894E-07  -8.21089230067992E-07  -3.17796729119456E-15   0.00000000000000E+00
      0.00000000000000E+00   0.00000000000000E+00   1.06008957227513E-08  -1.89248962554423E-19  -5.04655748375746E-07
     -4.94054852653184E-07  -3.17811899266318E-15   0.00000000000000E+00   0.00000000000000E+00   0.00000000000000E+00
      7.06089173135018E-09  -1.53133382206253E-19  -3.56575506861378E-07  -3.49514615130180E-07  -3.17835733234940E-15
      5.00000000000000E-13
      0.00000000000000E+00   0.00000000000000E+00   0.00000000000000E+00   2.60709245044216E-09  -1.53131609024724E-19
     -1.81895130296789E-07  -1.79288037846500E-07  -3.17912145913517E-15   2.00000000000000E+02   2.00000000000000E+02
      0.00000000000000E+00  -2.23734820189435E-06   2.21826974635660E-06   1.39758568291202E-13  -1.90783157791773E-08
      1.68178682139938E-14   0.00000000000000E+00   0.00000000000000E+00   0.00000000000000E+00  -6.09303547574104E-10
     -1.53721958810621E-19   5.35231505884513E-08   5.29138470407235E-08  -3.20733244316824E-15   0.00000000000000E+00
      0.00000000000000E+00   0.00000000000000E+00  -5.33324190833089E-09  -1.62755622370614E-11  -6.12119710845726E-07
     -6.17469228316294E-07   7.04871760760972E-15   0.00000000000000E+00   0.00000000000000E+00   0.00000000000000E+00
     -1.48069968203408E-07  -7.75817213148870E-20   9.85060523820733E-06   9.70253527000384E-06  -1.59117847950158E-15
      0.00000000000000E+00   0.00000000000000E+00   0.00000000000000E+00   1.00588266879695E-07  -1.53783321995113E-19
     -6.83508141241048E-06  -6.73449314553094E-06  -3.17658691675929E-15   0.00000000000000E+00   0.00000000000000E+00
      0.00000000000000E+00   2.19099232016289E-08  -1.53735260212956E-19  -1.22315028380424E-06  -1.20124036060276E-06
     -3.17782252191951E-15   0.00000000000000E+00   0.00000000000000E+00   0.00000000000000E+00   9.10298181962786E-09
     -1.53728108295082E-19  -5.01372819402080E-07  -4.92269837582606E-07  -3.17801651650270E-15   0.00000000000000E+00
      0.00000000000000E+00   0.00000000000000E+00   5.39199589144928E-09  -1.89247411794785E-19  -3.02562852444716E-07
     -2.97170856553456E-07  -3.17814870885823E-15   0.00000000000000E+00   0.00000000000000E+00   0.00000000000000E+00
      3.80171628727018E-09  -1.53132332924283E-19  -2.18241051167659E-07  -2.14439334880542E-07  -3.17837877575895E-15
      6.00000000000000E-13
      0.00000000000000E+00   0.00000000000000E+00   0.00000000000000E+00   1.63407855934894E-09  -1.53131161905470E-19
     -1.23131065458991E-07  -1.21496986899795E-07  -3.17913360851440E-15   2.00000000000000E+02   2.00000000000000E+02
      0.00000000000000E+00  -1.65763837194375E-06   1.66422320052857E-06   1.38308760136042E-13   6.58496689358056E-09
      1.68178688707663E-14   0.00000000000000E+00   0.00000000000000E+00   0.00000000000000E+00  -4.49870308695543E-10
     -1.53722175087657E-19   3.13425186238947E-08   3.08926483150454E-08  -3.20732935287537E-15   0.00000000000000E+00
      0.00000000000000E+00   0.00000000000000E+00  -6.45258212781534E-09  -1.62874451491545E-11  -3.83861735490877E-07
     -3.90330605063842E-07   7.04867856756303E-15   0.00000000000000E+00   0.00000000000000E+00   0.00000000000000E+00
     -8.96910620154748E-08  -7.76098815225536E-20   6.30199538311140E-06   6.21230432109585E-06  -1.59055727021905E-15
      0.00000000000000E+00   0.00000000000000E+00   0.00000000000000E+00   6.32279703629058E-08  -1.53763804118206E-19
     -4.41619818232636E-06  -4.35297021196361E-06  -3.17702219274470E-15   0.00000000000000E+00   0.00000000000000E+00
      0.00000000000000E+00   1.22057979487112E-08  -1.53731645570293E-19  -7.63183206791486E-07  -7.50977408842929E-07
     -3.17789761545005E-15   0.00000000000000E+00   0.00000000000000E+00   0.00000000000000E+00   5.02763094380939E-09
     -1.53726684822527E-19  -3.15488448549281E-07  -3.10460817605626E-07  -3.17804756081858E-15   0.00000000000000E+00
      0.00000000000000E+00   0.00000000000000E+00   3.00834784086938E-09  -1.89246554629107E-19  -1.90220373544208E-07
     -1.87212025703528E-07  -3.17816742911834E-15   0.00000000000000E+00   0.00000000000000E+00   0.00000000000000E+00
      2.20284173789232E-09  -1.53131727121414E-19  -1.38536721938879E-07  -1.36333880201140E-07  -3.17839240858880E-15
      7.00000000000000E-13
      0.00000000000000E+00   0.00000000000000E+00   0.00000000000000E+00   1.06818855114046E-09  -1.53130862668804E-19
     -8.46019121840967E-08  -8.35337236331093E-08  -3.17914196154751E-15   2.00000000000000E+02   2.00000000000000E+02
      0.00000000000000E+00  -1.30363230984595E-06   1.31822896010535E-06   1.37114256307579E-13   1.45967873736564E-08
      1.68178703287206E-14   0.00000000000000E+00   0.00000000000000E+00   0.00000000000000E+00  -2.83456687169033E-10
     -1.53722302975708E-19   1.74808528273459E-08   1.71973961400231E-08  -3.20732763207162E-15   0.00000000000000E+00
      0.00000000000000E+00   0.00000000000000E+00  -6.69631929254379E-09  -1.62988675802204E-11  -2.44807059331531E-07
     -2.51519677491655E-07   7.04865340817443E-15   0.00000000000000E+00   0.00000000000000E+00   0.00000000000000E+00
     -5.54865831194789E-08  -7.76268928814047E-20   4.11035043545410E-06   4.05486385233455E-06  -1.59015180572772E-15
      0.00000000000000E+00   0.00000000000000E+00   0.00000000000000E+00   3.98505041313221E-08  -1.53751541712672E-19
     -2.89006262999254E-06  -2.85021212586137E-06  -3.17730719206046E-15   0.00000000000000E+00   0.00000000000000E+00
      0.00000000000000E+00   7.15094466329288E-09  -1.53729539458805E-19  -4.94080258441295E-07  -4.86929313778156E-07
     -3.17794630402736E-15   0.00000000000000E+00   0.00000000000000E+00   0.00000000000000E+00   2.96148284886925E-09
     -1.53725849679598E-19  -2.06306395329234E-07  -2.03344912480518E-07  -3.17806789348332E-15   0.00000000000000E+00
      0.00000000000000E+00   0.00000000000000E+00   1.78188192001176E-09  -1.89246047982508E-19  -1.23841053981254E-07
     -1.22059172061431E-07  -3.17817963405835E-15   0.00000000000000E+00   0.00000000000000E+00   0.00000000000000E+00
      1.33472335976959E-09  -1.53131358580509E-19  -9.03938338524491E-08  -8.90591104928326E-08  -3.17840131391868E-15
      8.00000000000000E-13
      0.00000000000000E+00   0.00000000000000E+00   0.00000000000000E+00   7.11995698285106E-10  -1.53130658844060E-19
     -5.88264423215753E-08  -5.81144466234434E-08  -3.17914777263900E-15   2.00000000000000E+02   2.00000000000000E+02
      0.00000000000000E+00  -1.06656227064270E-06   1.08370787129129E-06   1.36093607299247E-13   1.71457367421966E-08
      1.68178720415699E-14   0.00000000000000E+00   0.00000000000000E+00   0.00000000000000E+00  -1.66965236369214E-10
     -1.53722373143574E-19   9.23429882881365E-09   9.06733359229071E-09  -3.20732672424794E-15   0.00000000000000E+00
      0.00000000000000E+00   0.00000000000000E+00  -6.46393638016280E-09  -1.63096059987207E-11  -1.59056069169878E-07
     -1.65536315156040E-07   7.04863684691582E-15   0.00000000000000E+00   0.00000000000000E+00   0.00000000000000E+00
     -3.48674339015913E-08  -7.76372437043886E-20   2.73453480357076E-06   2.69966736966909E-06  -1.58988186147346E-15
      0.00000000000000E+00   0.00000000000000E+00   0.00000000000000E+00   2.52545991873231E-08  -1.53743801528288E-19
     -1.92244372365220E-06  -1.89718912446503E-06  -3.17749688850113E-15   0.00000000000000E+00   0.00000000000000E+00
      0.00000000000000E+00   4.35607411758781E-09  -1.53728260722550E-19  -3.30359359148605E-07  -3.26003285031171E-07
     -3.17797889990331E-15   0.00000000000000E+00   0.00000000000000E+00   0.00000000000000E+00   1.82203348594156E-09
     -1.53725335074266E-19  -1.39254616155917E-07  -1.37432582670130E-07  -3.17808163487326E-15   0.00000000000000E+00
      0.00000000000000E+00   0.00000000000000E+00   1.09633344908055E-09  -1.89245734762495E-19  -8.30646329935150E-08
     -8.19682995446236E-08  -3.17818782988724E-15   0.00000000000000E+00   0.00000000000000E+00   0.00000000000000E+00
      8.31148053209530E-10  -1.53131125812672E-19  -6.04675345850281E-08  -5.96363865319717E-08  -3.17840727696036E-15
      9.00000000000000E-13
      0.00000000000000E+00   0.00000000000000E+00   0.00000000000000E+00   4.79238898893547E-10  -1.53130518052938E-19
     -4.14177543202126E-08  -4.09385154214722E-08  -3.17915186612741E-15   2.00000000000000E+02   2.00000000000000E+02
      0.00000000000000E+00  -8.98022781683703E-07   9.16061066356514E-07   1.35198502720603E-13   1.80384198713131E-08
      1.68178738436875E-14   0.00000000000000E+00   0.00000000000000E+00   0.00000000000000E+00  -9.46252422820522E-11
     -1.53722409556650E-19   4.45416592842484E-09   4.35954068598907E-09  -3.20732628718371E-15   0.00000000000000E+00
      0.00000000000000E+00   0.00000000000000E+00  -6.01492552630329E-09  -1.63196035550013E-11  -1.05551723950594E-07
     -1.11582969080453E-07   7.04862568093372E-15   0.00000000000000E+00   0.00000000000000E+00   0.00000000000000E+00
     -2.22111226755833E-08  -7.76435479451865E-20   1.85870827917129E-06   1.83649715649563E-06  -1.58969823472974E-15
      0.00000000000000E+00   0.00000000000000E+00   0.00000000000000E+00   1.61294695608074E-08  -1.53738882249303E-19
     -1.30434885681332E-06  -1.28821938725267E-06  -3.17762568757752E-15   0.00000000000000E+00   0.00000000000000E+00
      0.00000000000000E+00   2.73575187374006E-09  -1.53727459390972E-19  -2.27632250204438E-07  -2.24896498330852E-07
     -3.17800138503123E-15   0.00000000000000E+00   0.00000000000000E+00   0.00000000000000E+00   1.15516234565317E-09
     -1.53725007064869E-19  -9.67860141691883E-08  -9.56308518236889E-08  -3.17809119606045E-15   0.00000000000000E+00
      0.00000000000000E+00   0.00000000000000E+00   6.92142689819367E-10  -1.89245536089426E-19  -5.73485891695111E-08
     -5.66564464798810E-08  -3.17819349451397E-15   0.00000000000000E+00   0.00000000000000E+00   0.00000000000000E+00
      5.27427244093434E-10  -1.53130976218777E-19  -4.14978758484998E-08  -4.09704486045595E-08  -3.17841137339714E-15
      1.00000000000000E-12
      0.00000000000000E+00   0.00000000000000E+00   0.00000000000000E+00   3.24565026037573E-10  -1.53130420191229E-19
     -2.95932133672228E-08  -2.92686483413383E-08  -3.17915479262189E-15   2.00000000000000E+02   2.00000000000000E+02
      0.00000000000000E+00  -7.73053068614802E-07   7.91511027299503E-07   1.34398059731787E-13   1.84580930827608E-08
      1.68178756877724E-14   0.00000000000000E+00   0.00000000000000E+00   0.00000000000000E+00  -5.20519630681762E-11
     -1.53722425536902E-19   1.72948775313083E-09   1.67743578990894E-09  -3.20732611831431E-15   0.00000000000000E+00
      0.00000000000000E+00   0.00000000000000E+00  -5.49385691602062E-09  -1.63288865568231E-11  -7.17558298240301E-08
     -7.72660156266075E-08   7.04861794668552E-15   0.00000000000000E+00   0.00000000000000E+00   0.00000000000000E+00
     -1.43369462385379E-08  -7.76473644509629E-20   1.29365240587958E-06   1.27931545964097E-06  -1.58957032657977E-15
      0.00000000000000E+00   0.00000000000000E+00   0.00000000000000E+00   1.04028164693065E-08  -1.53735729064647E-19
     -9.05707411105119E-07  -8.95304594635966E-07  -3.17771519490430E-15   0.00000000000000E+00   0.00000000000000E+00
      0.00000000000000E+00   1.76097578520309E-09  -1.53726942757906E-19  -1.61547088941654E-07  -1.59786113156605E-07
     -3.17801735907033E-15   0.00000000000000E+00   0.00000000000000E+00   0.00000000000000E+00   7.48787314722433E-10
     -1.53724792122529E-19  -6.92689520701806E-08  -6.85201647556119E-08  -3.17809804615731E-15   0.00000000000000E+00
      0.00000000000000E+00   0.00000000000000E+00   4.45593963986506E-10  -1.89245406659559E-19  -4.08054369162324E-08
     -4.03598429524352E-08  -3.17819752946810E-15   0.00000000000000E+00   0.00000000000000E+00   0.00000000000000E+00
      3.39790038210900E-10  -1.53130877703788E-19  -2.92853990710591E-08  -2.89456090330013E-08  -3.17841426734191E-15
      1.10000000000000E-12
      0.00000000000000E+00   0.00000000000000E+00   0.00000000000000E+00   2.21009165264788E-10  -1.53130351707462E-19
     -2.15226347590657E-08  -2.13016255939540E-08  -3.17915692240874E-15   2.00000000000000E+02   2.00000000000000E+02
      0.00000000000000E+00  -6.77344484417299E-07   6.96103289941141E-07   1.33671391632867E-13   1.87589391952335E-08
      1.68178775619419E-14   0.00000000000000E+00   0.00000000000000E+00   0.00000000000000E+00  -2.77245118876507E-11
     -1.53722431667116E-19   1.98521303894369E-10   1.70796791852996E-10  -3.20732610009596E-15   0.00000000000000E+00
      0.00000000000000E+00   0.00000000000000E+00  -4.97491352759207E-09  -1.63375165142836E-11  -5.01188695639013E-08
     -5.51101206080076E-08   7.04861242812940E-15   0.00000000000000E+00   0.00000000000000E+00   0.00000000000000E+00
     -9.38256493750232E-09  -7.76496386806778E-20   9.24008530423261E-07   9.14625965485681E-07  -1.58947888775945E-15
      0.00000000000000E+00   0.00000000000000E+00   0.00000000000000E+00   6.78883483662393E-09  -1.53733686957419E-19
     -6.45585162953437E-07  -6.38796328116967E-07  -3.17777905121375E-15   0.00000000000000E+00   0.00000000000000E+00
      0.00000000000000E+00   1.15759365764929E-09  -1.53726603270846E-19  -1.18120393404110E-07  -1.16962799746615E-07
     -3.17802905074063E-15   0.00000000000000E+00   0.00000000000000E+00   0.00000000000000E+00   4.94337723392041E-10
     -1.53724648805830E-19  -5.11041161728608E-08  -5.06097784496224E-08  -3.17810310519932E-15   0.00000000000000E+00
      0.00000000000000E+00   0.00000000000000E+00   2.91811217697921E-10  -1.89245320631499E-19  -2.99790882206242E-08
     -2.96872770031155E-08  -3.17820049715648E-15   0.00000000000000E+00   0.00000000000000E+00   0.00000000000000E+00
      2.22049265139349E-10  -1.53130811657637E-19  -2.13098212484361E-08  -2.10877719834499E-08  -3.17841637549699E-15
      1.20000000000000E-12
      0.00000000000000E+00   0.00000000000000E+00   0.00000000000000E+00   1.51423813772867E-10  -1.53130303385430E-19
     -1.59841243280886E-08  -1.58327005144689E-08  -3.17915850529902E-15   2.00000000000000E+02   2.00000000000000E+02
      0.00000000000000E+00  -6.02066472765931E-07   6.21102518856473E-07   1.33003830626328E-13   1.90361790943727E-08
      1.68178794638355E-14   0.00000000000000E+00   0.00000000000000E+00   0.00000000000000E+00  -1.40825999591884E-11
     -1.53722431850255E-19  -6.47387024813207E-10  -6.61469624926118E-10  -3.20732616509333E-15   0.00000000000000E+00
      0.00000000000000E+00   0.00000000000000E+00  -4.49248865068387E-09  -1.63455654200694E-11  -3.60540076194086E-08
     -4.05628418355125E-08   7.04860836444645E-15   0.00000000000000E+00   0.00000000000000E+00   0.00000000000000E+00
     -6.23293947006252E-09  -7.76509496649091E-20   6.78538196665160E-07   6.72305257195020E-07  -1.58941168135958E-15
      0.00000000000000E+00   0.00000000000000E+00   0.00000000000000E+00   4.49208813049384E-09  -1.53732347671267E-19
     -4.73496880215052E-07  -4.69004792084711E-07  -3.17782592823302E-15   0.00000000000000E+00   0.00000000000000E+00
      0.00000000000000E+00   7.75692517153168E-10  -1.53726375744244E-19  -8.90246638653484E-08  -8.82489713483490E-08
     -3.17803787099951E-15   0.00000000000000E+00   0.00000000000000E+00   0.00000000000000E+00   3.31951996954165E-10
     -1.53724550406081E-19  -3.89053159244169E-08  -3.85733639276165E-08  -3.17810696058737E-15   0.00000000000000E+00
      0.00000000000000E+00   0.00000000000000E+00   1.94297141621513E-10  -1.89245262254460E-19  -2.27747405775591E-08
     -2.25804434361268E-08  -3.17820275415446E-15   0.00000000000000E+00   0.00000000000000E+00   0.00000000000000E+00
      1.47226790888818E-10  -1.53130766512157E-19  -1.60240801591591E-08  -1.58768533684234E-08  -3.17841796255561E-15
      1.30000000000000E-12
      0.00000000000000E+00   0.00000000000000E+00   0.00000000000000E+00   1.04499833178975E-10  -1.53130268929903E-19
     -1.21573950220165E-08  -1.20528951889907E-08  -3.17915971020569E-15   2.00000000000000E+02   2.00000000000000E+02
      0.00000000000000E+00  -5.41487210627733E-07   5.60794863049435E-07   1.32384659577963E-13   1.93077848063617E-08
      1.68178813928896E-14   0.00000000000000E+00   0.00000000000000E+00   0.00000000000000E+00  -6.58697020642998E-12
     -1.53722429019416E-19  -1.10308773429073E-09  -1.10967470465088E-09  -3.20732627490168E-15   0.00000000000000E+00
      0.00000000000000E+00   0.00000000000000E+00  -4.05962979795514E-09  -1.63531039363944E-11  -2.67520019358189E-08
     -3.08279848377104E-08   7.04860527442376E-15   0.00000000000000E+00   0.00000000000000E+00   0.00000000000000E+00
     -4.21005156093713E-09  -7.76516556467480E-20   5.12792909503606E-07   5.08582857942591E-07  -1.58936084752683E-15
      0.00000000000000E+00   0.00000000000000E+00   0.00000000000000E+00   3.02031019297746E-09  -1.53731457681710E-19
     -3.57817449058836E-07  -3.54797138866012E-07  -3.17786138438806E-15   0.00000000000000E+00   0.00000000000000E+00
      0.00000000000000E+00   5.29644916849525E-10  -1.53726219432037E-19  -6.91594305908529E-08  -6.86297856741571E-08
     -3.17804472931756E-15   0.00000000000000E+00   0.00000000000000E+00   0.00000000000000E+00   2.26781698548607E-10
     -1.53724482850338E-19  -3.05701104392907E-08  -3.03433287408958E-08  -3.17810999296210E-15   0.00000000000000E+00
      0.00000000000000E+00   0.00000000000000E+00   1.31657214455062E-10  -1.89245221756330E-19  -1.78960707452721E-08
     -1.77644135310063E-08  -3.17820452954390E-15   0.00000000000000E+00   0.00000000000000E+00   0.00000000000000E+00
      9.92077863563826E-11  -1.53130734995827E-19  -1.24646291275430E-08  -1.23654213413397E-08  -3.17841919846747E-15
      1.40000000000000E-12