DF-ISE text

Info {
  version   = 1.0
  type      = xyplot
  datasets  = [
    "time"
    "PIX7 OuterVoltage" "PIX7 InnerVoltage" "PIX7 QuasiFermiPotential" "PIX7 DisplacementCurrent" "PIX7 eCurrent"
    "PIX7 hCurrent" "PIX7 TotalCurrent" "PIX7 Charge" "BACK OuterVoltage" "BACK InnerVoltage"
    "BACK QuasiFermiPotential" "BACK DisplacementCurrent" "BACK eCurrent" "BACK hCurrent" "BACK TotalCurrent"
    "BACK Charge" "PIX8 OuterVoltage" "PIX8 InnerVoltage" "PIX8 QuasiFermiPotential" "PIX8 DisplacementCurrent"
    "PIX8 eCurrent" "PIX8 hCurrent" "PIX8 TotalCurrent" "PIX8 Charge" "PIX9 OuterVoltage"
    "PIX9 InnerVoltage" "PIX9 QuasiFermiPotential" "PIX9 DisplacementCurrent" "PIX9 eCurrent" "PIX9 hCurrent"
    "PIX9 TotalCurrent" "PIX9 Charge" "PIX1 OuterVoltage" "PIX1 InnerVoltage" "PIX1 QuasiFermiPotential"
    "PIX1 DisplacementCurrent" "PIX1 eCurrent" "PIX1 hCurrent" "PIX1 TotalCurrent" "PIX1 Charge"
    "PIX2 OuterVoltage" "PIX2 InnerVoltage" "PIX2 QuasiFermiPotential" "PIX2 DisplacementCurrent" "PIX2 eCurrent"
    "PIX2 hCurrent" "PIX2 TotalCurrent" "PIX2 Charge" "PIX3 OuterVoltage" "PIX3 InnerVoltage"
    "PIX3 QuasiFermiPotential" "PIX3 DisplacementCurrent" "PIX3 eCurrent" "PIX3 hCurrent" "PIX3 TotalCurrent"
    "PIX3 Charge" "PIX4 OuterVoltage" "PIX4 InnerVoltage" "PIX4 QuasiFermiPotential" "PIX4 DisplacementCurrent"
    "PIX4 eCurrent" "PIX4 hCurrent" "PIX4 TotalCurrent" "PIX4 Charge" "PIX5 OuterVoltage"
    "PIX5 InnerVoltage" "PIX5 QuasiFermiPotential" "PIX5 DisplacementCurrent" "PIX5 eCurrent" "PIX5 hCurrent"
    "PIX5 TotalCurrent" "PIX5 Charge" "PIX6 OuterVoltage" "PIX6 InnerVoltage" "PIX6 QuasiFermiPotential"
    "PIX6 DisplacementCurrent" "PIX6 eCurrent" "PIX6 hCurrent" "PIX6 TotalCurrent" "PIX6 Charge" ]
  functions = [
    Time
    OuterVoltage InnerVoltage QuasiFermiPotential DisplacementCurrent eCurrent
    hCurrent TotalCurrent Charge OuterVoltage InnerVoltage
    QuasiFermiPotential DisplacementCurrent eCurrent hCurrent TotalCurrent
    Charge OuterVoltage InnerVoltage QuasiFermiPotential DisplacementCurrent
    eCurrent hCurrent TotalCurrent Charge OuterVoltage
    InnerVoltage QuasiFermiPotential DisplacementCurrent eCurrent hCurrent
    TotalCurrent Charge OuterVoltage InnerVoltage QuasiFermiPotential
    DisplacementCurrent eCurrent hCurrent TotalCurrent Charge
    OuterVoltage InnerVoltage QuasiFermiPotential DisplacementCurrent eCurrent
    hCurrent TotalCurrent Charge OuterVoltage InnerVoltage
    QuasiFermiPotential DisplacementCurrent eCurrent hCurrent TotalCurrent
    Charge OuterVoltage InnerVoltage QuasiFermiPotential DisplacementCurrent
    eCurrent hCurrent TotalCurrent Charge OuterVoltage
    InnerVoltage QuasiFermiPotential DisplacementCurrent eCurrent hCurrent
    TotalCurrent Charge OuterVoltage InnerVoltage QuasiFermiPotential
    DisplacementCurrent eCurrent hCurrent TotalCurrent Charge ]
}

Data {
      0.00000000000000E+00
      0.00000000000000E+00   0.00000000000000E+00   0.00000000000000E+00  -7.41639767642022E-30  -1.53131048027052E-19
     -4.31859537534063E-15  -4.31874850638866E-15  -3.17924148555976E-15   2.00000000000000E+02   2.00000000000000E+02
      0.00000000000000E+00   5.60297307834940E-25  -3.83091175900273E-11   5.55528130475655E-11   1.72436954575388E-11
      1.68177494282920E-14   0.00000000000000E+00   0.00000000000000E+00   0.00000000000000E+00  -1.07125744214959E-29
     -1.53722664892220E-19  -4.81527078308231E-15  -4.81542450574721E-15  -3.20780957579879E-15   0.00000000000000E+00
      0.00000000000000E+00   0.00000000000000E+00   6.75056997391493E-27  -1.71999968914495E-11  -1.05034289609497E-14
     -1.72105003204104E-11   7.07088673081416E-15   0.00000000000000E+00   0.00000000000000E+00   0.00000000000000E+00
      2.88415465194120E-30  -7.62087392901926E-20  -2.46869454736120E-15  -2.46877075610049E-15  -1.61914747595537E-15
      0.00000000000000E+00   0.00000000000000E+00   0.00000000000000E+00  -1.64808837253783E-30  -1.53788914581493E-19
     -4.32533135810606E-15  -4.32548514702064E-15  -3.17225982985196E-15   0.00000000000000E+00   0.00000000000000E+00
      0.00000000000000E+00  -1.07125744214959E-29  -1.53740597260605E-19  -4.31529881004926E-15  -4.31545255064653E-15
     -3.17675365052508E-15   0.00000000000000E+00   0.00000000000000E+00   0.00000000000000E+00  -8.24044186268913E-30
     -1.53731158912797E-19  -4.31641513268356E-15  -4.31656886384248E-15  -3.17760403665464E-15   0.00000000000000E+00
      0.00000000000000E+00   0.00000000000000E+00  -1.31847069803026E-29  -1.89248307215442E-19  -4.31692432986247E-15
     -4.31711357816970E-15  -3.17799024863341E-15   0.00000000000000E+00   0.00000000000000E+00   0.00000000000000E+00
     -1.23606627940337E-29  -1.53132060281153E-19  -4.31742008837359E-15  -4.31757322043388E-15  -3.17836422924232E-15
      1.00000000000000E-13
      0.00000000000000E+00   0.00000000000000E+00   0.00000000000000E+00   3.76694266893251E-07  -1.53109458255965E-19
      2.32917401989739E-06   2.70586828679049E-06  -3.17897089872570E-15   2.00000000000000E+02   2.00000000000000E+02
      0.00000000000000E+00  -1.97603929713318E-04   2.02150862962526E-04   1.58288540842316E-13   4.54693340749660E-06
      1.68182041199084E-14   0.00000000000000E+00   0.00000000000000E+00   0.00000000000000E+00   2.11467702963912E-07
     -1.53687324985670E-19   4.07493316612081E-06   4.28640086908457E-06  -3.20738093540103E-15   0.00000000000000E+00
      0.00000000000000E+00   0.00000000000000E+00  -2.11315119264347E-04  -1.62074513200152E-11  -4.40606099394670E-06
     -2.15721196465746E-04   7.04931461608281E-15   0.00000000000000E+00   0.00000000000000E+00   0.00000000000000E+00
     -3.12800438348025E-05  -7.58474029641430E-20   2.16703668534542E-04   1.85423624699739E-04  -1.60060512157636E-15
      0.00000000000000E+00   0.00000000000000E+00   0.00000000000000E+00   1.38576531715237E-05  -1.53701715057742E-19
      2.42595673537634E-06   1.62836099068999E-05  -3.17063146605158E-15   0.00000000000000E+00   0.00000000000000E+00
      0.00000000000000E+00   2.99577570339420E-06  -1.53724446226894E-19  -3.26868737992838E-07   2.66890696540120E-06
     -3.17648675881142E-15   0.00000000000000E+00   0.00000000000000E+00   0.00000000000000E+00   1.30388296507700E-06
     -1.53720428474274E-19   1.37197569614902E-07   1.44108053469175E-06  -3.17745992814966E-15   0.00000000000000E+00
      0.00000000000000E+00   0.00000000000000E+00   7.47218566108261E-07  -1.89235215135847E-19   9.44275836943023E-07
      1.69149440305109E-06  -3.17782109898660E-15   0.00000000000000E+00   0.00000000000000E+00   0.00000000000000E+00
      4.98842301118140E-07  -1.53116379143629E-19   1.51816624363753E-06   2.01700854475551E-06  -3.17816252828880E-15
      2.00000000000000E-13
      0.00000000000000E+00   0.00000000000000E+00   0.00000000000000E+00  -7.44693058794874E-08  -1.53135667037069E-19
     -7.23361611978133E-07  -7.97830917857774E-07  -3.17905068170015E-15   2.00000000000000E+02   2.00000000000000E+02
      0.00000000000000E+00  -1.91853387197252E-05   1.79606889589825E-05   1.48570165879239E-13  -1.22464961217252E-06
      1.68180816532228E-14   0.00000000000000E+00   0.00000000000000E+00   0.00000000000000E+00  -9.79456239691514E-08
     -1.53720637555732E-19   1.60724312148599E-07   6.27786881792938E-08  -3.20737465692475E-15   0.00000000000000E+00
      0.00000000000000E+00   0.00000000000000E+00  -4.37601524512089E-08  -1.62434090061890E-11  -2.75632142358727E-06
     -2.80009781944749E-06   7.04903460673594E-15   0.00000000000000E+00   0.00000000000000E+00   0.00000000000000E+00
     -4.44118197325769E-06  -7.72684439141545E-20   4.80665286467075E-05   4.36253466734498E-05  -1.59624260037969E-15
      0.00000000000000E+00   0.00000000000000E+00   0.00000000000000E+00  -7.03791564002244E-07  -1.53934555106953E-19
     -2.53376503544438E-05  -2.60414419184462E-05  -3.17323560032817E-15   0.00000000000000E+00   0.00000000000000E+00
      0.00000000000000E+00  -1.53814697276137E-07  -1.53779045575945E-19  -6.67916367445437E-06  -6.83297837173066E-06
     -3.17717005431271E-15   0.00000000000000E+00   0.00000000000000E+00   0.00000000000000E+00  -7.17806637916615E-08
     -1.53747211146455E-19  -2.92600339055389E-06  -2.99778405434571E-06  -3.17775970555937E-15   0.00000000000000E+00
      0.00000000000000E+00   0.00000000000000E+00  -6.24683687887964E-08  -1.89258713815048E-19  -1.74753587287010E-06
     -1.81000424165909E-06  -3.17800209890348E-15   0.00000000000000E+00   0.00000000000000E+00   0.00000000000000E+00
     -6.31739672228257E-08  -1.53139265312666E-19  -1.12016445868992E-06  -1.18333842591290E-06  -3.17828086185039E-15
      3.00000000000000E-13
      0.00000000000000E+00   0.00000000000000E+00   0.00000000000000E+00   7.65751640294006E-09  -1.53133604491760E-19
     -4.47855480081865E-07  -4.40197963679078E-07  -3.17909470129655E-15   2.00000000000000E+02   2.00000000000000E+02
      0.00000000000000E+00  -6.13021630855095E-06   5.81938838282591E-06   1.44291487162026E-13  -3.10827781433550E-07
      1.68180505687202E-14   0.00000000000000E+00   0.00000000000000E+00   0.00000000000000E+00  -4.83763512783795E-10
     -1.53721296964780E-19   1.09113671563501E-07   1.08629908050563E-07  -3.20736379314429E-15   0.00000000000000E+00
      0.00000000000000E+00   0.00000000000000E+00  -2.19306891811867E-09  -1.62550549253521E-11  -1.64010732021869E-06
     -1.64231664419174E-06   7.04887037226396E-15   0.00000000000000E+00   0.00000000000000E+00   0.00000000000000E+00
     -5.56108592221294E-07  -7.74513833922507E-20   2.58970379447638E-05   2.53409293525424E-05  -1.59370852413968E-15
      0.00000000000000E+00   0.00000000000000E+00   0.00000000000000E+00   2.29485426773862E-07  -1.53863924359073E-19
     -1.67441010197018E-05  -1.65146155929281E-05  -3.17488704724315E-15   0.00000000000000E+00   0.00000000000000E+00
      0.00000000000000E+00   8.14271184050855E-08  -1.53754488844511E-19  -3.63886132318527E-06  -3.55743420478034E-06
     -3.17752579457513E-15   0.00000000000000E+00   0.00000000000000E+00   0.00000000000000E+00   3.80076102379032E-08
     -1.53736042475157E-19  -1.52075873701254E-06  -1.48275112677479E-06  -3.17790797933759E-15   0.00000000000000E+00
      0.00000000000000E+00   0.00000000000000E+00   2.22494762258067E-08  -1.89252127675188E-19  -9.12018882328459E-07
     -8.89769406102841E-07  -3.17809107514506E-15   0.00000000000000E+00   0.00000000000000E+00   0.00000000000000E+00
      1.34368059552454E-08  -1.53135436633854E-19  -6.25083346697592E-07  -6.11646540742499E-07  -3.17834202610264E-15
      4.00000000000000E-13
      0.00000000000000E+00   0.00000000000000E+00   0.00000000000000E+00   4.58607174744611E-09  -1.53132358467327E-19
     -2.81855935355559E-07  -2.77269863608266E-07  -3.17912242802419E-15   2.00000000000000E+02   2.00000000000000E+02
      0.00000000000000E+00  -3.34365744468081E-06   3.28815016154349E-06   1.41720868861221E-13  -5.55071414164509E-08
      1.68180450162817E-14   0.00000000000000E+00   0.00000000000000E+00   0.00000000000000E+00  -3.96037793869738E-10
     -1.53721674967347E-19   7.90101627194371E-08   7.86141249254137E-08  -3.20735593082564E-15   0.00000000000000E+00
      0.00000000000000E+00   0.00000000000000E+00  -2.98878282780793E-09  -1.62661334546765E-11  -9.94822384259392E-07
     -9.97827433220654E-07   7.04877058457851E-15   0.00000000000000E+00   0.00000000000000E+00   0.00000000000000E+00
     -2.55017335068899E-07  -7.75343639004887E-20   1.57236054816526E-05   1.54685881465836E-05  -1.59216168408474E-15
      0.00000000000000E+00   0.00000000000000E+00   0.00000000000000E+00   1.59623086618098E-07  -1.53814486007656E-19
     -1.06805262023850E-05  -1.05209031157670E-05  -3.17593911982078E-15   0.00000000000000E+00   0.00000000000000E+00
      0.00000000000000E+00   4.20143932819918E-08  -1.53741840261494E-19  -2.05556971546079E-06  -2.01355532217895E-06
     -3.17772714643150E-15   0.00000000000000E+00   0.00000000000000E+00   0.00000000000000E+00   1.81478063081346E-08
     -1.53730758540428E-19  -8.45325464890615E-07  -8.27177658582634E-07  -3.17799069555476E-15   0.00000000000000E+00
      0.00000000000000E+00   0.00000000000000E+00   1.06742270408585E-08  -1.89249000831822E-19  -5.10015713990148E-07
     -4.99341486949478E-07  -3.17814100847206E-15   0.00000000000000E+00   0.00000000000000E+00   0.00000000000000E+00
      7.13928696534835E-09  -1.53133427617620E-19  -3.62759536801446E-07  -3.55620249836250E-07  -3.17837758764643E-15
      5.00000000000000E-13
      0.00000000000000E+00   0.00000000000000E+00   0.00000000000000E+00   2.63009730508871E-09  -1.53131648523334E-19
     -1.87240475061659E-07  -1.84610377756723E-07  -3.17914088876217E-15   2.00000000000000E+02   2.00000000000000E+02
      0.00000000000000E+00  -2.23727365582532E-06   2.25732718498783E-06   1.39878833048804E-13   2.00536690413438E-08
      1.68180470199241E-14   0.00000000000000E+00   0.00000000000000E+00   0.00000000000000E+00  -5.87563685501908E-10
     -1.53721998414911E-19   4.81775129334555E-08   4.75899492477999E-08  -3.20735117084799E-15   0.00000000000000E+00
      0.00000000000000E+00   0.00000000000000E+00  -5.31356262758291E-09  -1.62779599525440E-11  -6.14467941127298E-07
     -6.19797781714834E-07   7.04870859852797E-15   0.00000000000000E+00   0.00000000000000E+00   0.00000000000000E+00
     -1.48054532983774E-07  -7.75817356776662E-20   9.84844934968246E-06   9.70039481669861E-06  -1.59119166475685E-15
      0.00000000000000E+00   0.00000000000000E+00   0.00000000000000E+00   1.00621275499724E-07  -1.53783352384411E-19
     -6.83952627078371E-06  -6.73890499528414E-06  -3.17661299057957E-15   0.00000000000000E+00   0.00000000000000E+00
      0.00000000000000E+00   2.19408655249675E-08  -1.53735293329257E-19  -1.22789872373171E-06  -1.20595785820690E-06
     -3.17784773821073E-15   0.00000000000000E+00   0.00000000000000E+00   0.00000000000000E+00   9.13131353854748E-09
     -1.53728144175314E-19  -5.06416396699611E-07  -4.97285083161217E-07  -3.17804042237659E-15   0.00000000000000E+00
      0.00000000000000E+00   0.00000000000000E+00   5.41016607027113E-09  -1.89247445005590E-19  -3.07218360529105E-07
     -3.01808194459023E-07  -3.17817118839058E-15   0.00000000000000E+00   0.00000000000000E+00   0.00000000000000E+00
      3.82598024661916E-09  -1.53132371376187E-19  -2.23500124658790E-07  -2.19674144412324E-07  -3.17839955452760E-15
      6.00000000000000E-13
      0.00000000000000E+00   0.00000000000000E+00   0.00000000000000E+00   1.64452092721466E-09  -1.53131198517766E-19
     -1.28077769992253E-07  -1.26433249065191E-07  -3.17915353175872E-15   2.00000000000000E+02   2.00000000000000E+02
      0.00000000000000E+00  -1.65720415118717E-06   1.69959315723282E-06   1.38420783655029E-13   4.23891444664389E-08
      1.68180512571141E-14   0.00000000000000E+00   0.00000000000000E+00   0.00000000000000E+00  -4.39798422560009E-10
     -1.53722211782098E-19   2.63968222185529E-08   2.59570237958392E-08  -3.20734857411107E-15   0.00000000000000E+00
      0.00000000000000E+00   0.00000000000000E+00  -6.45282297782727E-09  -1.62898450522702E-11  -3.86087486232701E-07
     -3.92556599055581E-07   7.04866933580645E-15   0.00000000000000E+00   0.00000000000000E+00   0.00000000000000E+00
     -8.96837683294327E-08  -7.76098937749190E-20   6.30013934706501E-06   6.21045557873550E-06  -1.59057064034458E-15
      0.00000000000000E+00   0.00000000000000E+00   0.00000000000000E+00   6.32426795781503E-08  -1.53763830334724E-19
     -4.42005863670742E-06  -4.35681595712942E-06  -3.17704865112640E-15   0.00000000000000E+00   0.00000000000000E+00
      0.00000000000000E+00   1.22193937301539E-08  -1.53731674836554E-19  -7.67390718155186E-07  -7.55171324425186E-07
     -3.17792325112105E-15   0.00000000000000E+00   0.00000000000000E+00   0.00000000000000E+00   5.03986470568113E-09
     -1.53726717245179E-19  -3.20045010439626E-07  -3.15005145734099E-07  -3.17807192111422E-15   0.00000000000000E+00
      0.00000000000000E+00   0.00000000000000E+00   3.01433465301863E-09  -1.89246586434357E-19  -1.94644577292555E-07
     -1.91630242639725E-07  -3.17819035046188E-15   0.00000000000000E+00   0.00000000000000E+00   0.00000000000000E+00
      2.21317101179273E-09  -1.53131762780920E-19  -1.43402399888076E-07  -1.41189228876436E-07  -3.17841367288274E-15
      7.00000000000000E-13
      0.00000000000000E+00   0.00000000000000E+00   0.00000000000000E+00   1.07428994721532E-09  -1.53130897642132E-19
     -8.93157319083289E-08  -8.82414419612667E-08  -3.17916235555454E-15   2.00000000000000E+02   2.00000000000000E+02
      0.00000000000000E+00  -1.30301090688430E-06   1.35147688181018E-06   1.37198452220361E-13   4.84661121243332E-08
      1.68180561020010E-14   0.00000000000000E+00   0.00000000000000E+00   0.00000000000000E+00  -2.77570586250472E-10
     -1.53722338031032E-19   1.27668787423508E-08   1.24893081559466E-08  -3.20734732410944E-15   0.00000000000000E+00
      0.00000000000000E+00   0.00000000000000E+00  -6.70296801254085E-09  -1.63012788971271E-11  -2.46974042793999E-07
     -2.53693312085437E-07   7.04864395897751E-15   0.00000000000000E+00   0.00000000000000E+00   0.00000000000000E+00
     -5.54821380690182E-08  -7.76269039349664E-20   4.10867257463857E-06   4.05319043656948E-06  -1.59016534319073E-15
      0.00000000000000E+00   0.00000000000000E+00   0.00000000000000E+00   3.98592700715685E-08  -1.53751565565209E-19
     -2.89357807305467E-06  -2.85371880298326E-06  -3.17733400109662E-15   0.00000000000000E+00   0.00000000000000E+00
      0.00000000000000E+00   7.15897345255194E-09  -1.53729566575365E-19  -4.97972536447424E-07  -4.90813562995026E-07
     -3.17797232811130E-15   0.00000000000000E+00   0.00000000000000E+00   0.00000000000000E+00   2.96852782199204E-09
     -1.53725880218782E-19  -2.10584953094315E-07  -2.07616425272477E-07  -3.17809268091895E-15   0.00000000000000E+00
      0.00000000000000E+00   0.00000000000000E+00   1.78489729403473E-09  -1.89246079188400E-19  -1.28148661064450E-07
     -1.26363763770604E-07  -3.17820298585037E-15   0.00000000000000E+00   0.00000000000000E+00   0.00000000000000E+00
      1.34050416904799E-09  -1.53131392742782E-19  -9.50390520264217E-08  -9.36985478575268E-08  -3.17842304214654E-15
      8.00000000000000E-13
      0.00000000000000E+00   0.00000000000000E+00   0.00000000000000E+00   7.16628440980785E-10  -1.53130692558897E-19
     -6.33618108343392E-08  -6.26451823935116E-08  -3.17916861971025E-15   2.00000000000000E+02   2.00000000000000E+02
      0.00000000000000E+00  -1.06584321442501E-06   1.11529789177308E-06   1.36205458345976E-13   4.94548135535324E-08
      1.68180610457580E-14   0.00000000000000E+00   0.00000000000000E+00   0.00000000000000E+00  -1.62510494862989E-10
     -1.53722406983355E-19   4.69391638342542E-09   4.53140588840871E-09  -3.20734686987168E-15   0.00000000000000E+00
      0.00000000000000E+00   0.00000000000000E+00  -6.47287585980729E-09  -1.63120322928644E-11  -1.61174969318199E-07
     -1.67664157210299E-07   7.04862718485641E-15   0.00000000000000E+00   0.00000000000000E+00   0.00000000000000E+00
     -3.48638084821025E-08  -7.76372537880804E-20   2.73299971409961E-06   2.69813590561743E-06  -1.58989555207869E-15
      0.00000000000000E+00   0.00000000000000E+00   0.00000000000000E+00   2.52616910965373E-08  -1.53743823476911E-19
     -1.92568316839991E-06  -1.90042147730353E-06  -3.17752402075921E-15   0.00000000000000E+00   0.00000000000000E+00
      0.00000000000000E+00   4.36251649082709E-09  -1.53728286114362E-19  -3.34000454055190E-07  -3.29637937564516E-07
     -3.17800528744036E-15   0.00000000000000E+00   0.00000000000000E+00   0.00000000000000E+00   1.82767034591119E-09
     -1.53725364115010E-19  -1.43313645943790E-07  -1.41485975598033E-07  -3.17810682763670E-15   0.00000000000000E+00
      0.00000000000000E+00   0.00000000000000E+00   1.09920929237934E-09  -1.89245765315278E-19  -8.72606100644408E-08
     -8.61614007722507E-08  -3.17821160097852E-15   0.00000000000000E+00   0.00000000000000E+00   0.00000000000000E+00
      8.35611362896062E-10  -1.53131158800200E-19  -6.49416056718260E-08  -6.41059943090831E-08  -3.17842945213897E-15
      9.00000000000000E-13
      0.00000000000000E+00   0.00000000000000E+00   0.00000000000000E+00   4.83697510381056E-10  -1.53130550515799E-19
     -4.57812798996752E-08  -4.52975823894473E-08  -3.17917314909579E-15   2.00000000000000E+02   2.00000000000000E+02
      0.00000000000000E+00  -8.97261805783155E-07   9.46010670960288E-07   1.35268380637580E-13   4.87490004455136E-08
      1.68180659189337E-14   0.00000000000000E+00   0.00000000000000E+00   0.00000000000000E+00  -9.04009747853514E-11
     -1.53722441586051E-19   7.78328475633337E-11  -1.25681273757402E-11  -3.20734687001131E-15   0.00000000000000E+00
      0.00000000000000E+00   0.00000000000000E+00  -6.02447388051648E-09  -1.63220459157778E-11  -1.07614674764550E-07
     -1.13655470690982E-07   7.04861581154455E-15   0.00000000000000E+00   0.00000000000000E+00   0.00000000000000E+00
     -2.22074685851220E-08  -7.76435570222231E-20   1.85731526684456E-06   1.83510779825936E-06  -1.58971206426652E-15
      0.00000000000000E+00   0.00000000000000E+00   0.00000000000000E+00   1.61365535869951E-08  -1.53738902227581E-19
     -1.30731312136966E-06  -1.29117656778282E-06  -3.17765311554017E-15   0.00000000000000E+00   0.00000000000000E+00
      0.00000000000000E+00   2.74224441248970E-09  -1.53727482976484E-19  -2.31021659705508E-07  -2.28279415293172E-07
     -3.17802811084767E-15   0.00000000000000E+00   0.00000000000000E+00   0.00000000000000E+00   1.16087148846418E-09
     -1.53725034520631E-19  -1.00623739292446E-07  -9.94628678041350E-08  -3.17811677201385E-15   0.00000000000000E+00
      0.00000000000000E+00   0.00000000000000E+00   6.95879006180045E-10  -1.89245565664023E-19  -6.14003646120069E-08
     -6.07044856060161E-08  -3.17821767039812E-15   0.00000000000000E+00   0.00000000000000E+00   0.00000000000000E+00
      5.31878986677520E-10  -1.53131007973014E-19  -4.57997198907926E-08  -4.52678409042682E-08  -3.17843397830473E-15
      1.00000000000000E-12
      0.00000000000000E+00   0.00000000000000E+00   0.00000000000000E+00   3.29311713947246E-10  -1.53130451265954E-19
     -3.37722548627501E-08  -3.34429431489560E-08  -3.17917649300997E-15   2.00000000000000E+02   2.00000000000000E+02
      0.00000000000000E+00  -7.72287390107956E-07   8.19673499269661E-07   1.34494248015684E-13   4.73862436559532E-08
      1.68180706558336E-14   0.00000000000000E+00   0.00000000000000E+00   0.00000000000000E+00  -4.75568377949528E-11
     -1.53722457096934E-19  -2.47226294386550E-09  -2.51981978181418E-09  -3.20734712086031E-15   0.00000000000000E+00
      0.00000000000000E+00   0.00000000000000E+00  -5.50314380084599E-09  -1.63313447422590E-11  -7.37496574817041E-08
     -7.92691326272923E-08   7.04860787690389E-15   0.00000000000000E+00   0.00000000000000E+00   0.00000000000000E+00
     -1.43329643361176E-08  -7.76473723953301E-20   1.29241325811233E-06   1.27808029377614E-06  -1.58958427962877E-15
      0.00000000000000E+00   0.00000000000000E+00   0.00000000000000E+00   1.04105486479726E-08  -1.53735746827613E-19
     -9.08372913636205E-07  -8.97962364988386E-07  -3.17774288863037E-15   0.00000000000000E+00   0.00000000000000E+00
      0.00000000000000E+00   1.76810610725924E-09  -1.53726964304811E-19  -1.64661184344231E-07  -1.62893078237125E-07
     -3.17804439557081E-15   0.00000000000000E+00   0.00000000000000E+00   0.00000000000000E+00   7.55113748791828E-10
     -1.53724817767322E-19  -7.28621126113668E-08  -7.21069988627287E-08  -3.17812398078229E-15   0.00000000000000E+00
      0.00000000000000E+00   0.00000000000000E+00   4.50377120848386E-10  -1.89245434875977E-19  -4.46718862849534E-08
     -4.42215091642942E-08  -3.17822209150765E-15   0.00000000000000E+00   0.00000000000000E+00   0.00000000000000E+00
      3.44757071652569E-10  -1.53130908026612E-19  -3.33954476572421E-08  -3.30506905857427E-08  -3.17843728274723E-15
      1.10000000000000E-12
      0.00000000000000E+00   0.00000000000000E+00   0.00000000000000E+00   2.26218941948954E-10  -1.53130381233351E-19
     -2.55003311509636E-08  -2.52741122091678E-08  -3.17917902003550E-15   2.00000000000000E+02   2.00000000000000E+02
      0.00000000000000E+00  -6.76598320952655E-07   7.22305598533262E-07   1.33776556907638E-13   4.57074113571642E-08
      1.68180752248502E-14   0.00000000000000E+00   0.00000000000000E+00   0.00000000000000E+00  -2.27982783213066E-11
     -1.53722461620019E-19  -3.81307358637100E-09  -3.83587186484603E-09  -3.20734750330152E-15   0.00000000000000E+00
      0.00000000000000E+00   0.00000000000000E+00  -4.98349358206116E-09  -1.63399895019592E-11  -5.20310236113126E-08
     -5.70308571828757E-08   7.04860216619207E-15   0.00000000000000E+00   0.00000000000000E+00   0.00000000000000E+00
     -9.37822837502747E-09  -7.76496453594153E-20   9.22936705401243E-07   9.13558477026138E-07  -1.58949294755284E-15
      0.00000000000000E+00   0.00000000000000E+00   0.00000000000000E+00   6.79725886639054E-09  -1.53733702243080E-19
     -6.47925048295381E-07  -6.41127789429144E-07  -3.17780697807228E-15   0.00000000000000E+00   0.00000000000000E+00
      0.00000000000000E+00   1.16540411710525E-09  -1.53726622524055E-19  -1.20932597318034E-07  -1.19767193201083E-07
     -3.17805636766787E-15   0.00000000000000E+00   0.00000000000000E+00   0.00000000000000E+00   5.01337552325599E-10
     -1.53724671768453E-19  -5.44267834971942E-08  -5.39254459450223E-08  -3.17812937137906E-15   0.00000000000000E+00
      0.00000000000000E+00   0.00000000000000E+00   2.97523525819721E-10  -1.89245347163085E-19  -3.36239170424293E-08
     -3.33263935167988E-08  -3.17822542309628E-15   0.00000000000000E+00   0.00000000000000E+00   0.00000000000000E+00
      2.27571867125939E-10  -1.53130840340936E-19  -2.52057968668009E-08  -2.49782249998281E-08  -3.17843977993698E-15
      1.20000000000000E-12
      0.00000000000000E+00   0.00000000000000E+00   0.00000000000000E+00   1.56966405598841E-10  -1.53130331233888E-19
     -1.97466819897025E-08  -1.95897155842568E-08  -3.17918097861715E-15   2.00000000000000E+02   2.00000000000000E+02
      0.00000000000000E+00  -6.01354606239884E-07   6.45210904897250E-07   1.33108402177018E-13   4.38564317657679E-08
      1.68180796087691E-14   0.00000000000000E+00   0.00000000000000E+00   0.00000000000000E+00  -8.83042424648957E-12
     -1.53722460192016E-19  -4.45569634170382E-09  -4.46452676610403E-09  -3.20734794859716E-15   0.00000000000000E+00
      0.00000000000000E+00   0.00000000000000E+00  -4.50021798172506E-09  -1.63480517458281E-11  -3.78750829884904E-08
     -4.23916490219613E-08   7.04859791954526E-15   0.00000000000000E+00   0.00000000000000E+00   0.00000000000000E+00
     -6.22833648030605E-09  -7.76509549808288E-20   6.77643734924416E-07   6.71415398444032E-07  -1.58942583013430E-15
      0.00000000000000E+00   0.00000000000000E+00   0.00000000000000E+00   4.50102860995187E-09  -1.53732360296413E-19
     -4.75491043153496E-07  -4.70990014543698E-07  -3.17785405360001E-15   0.00000000000000E+00   0.00000000000000E+00
      0.00000000000000E+00   7.84038319048073E-10  -1.53726392514560E-19  -9.15149539530378E-08  -9.07309156341434E-08
     -3.17806543610846E-15   0.00000000000000E+00   0.00000000000000E+00   0.00000000000000E+00   3.39461961426362E-10
     -1.53724571966652E-19  -4.19377443579183E-08  -4.15982823966457E-08  -3.17813352924681E-15   0.00000000000000E+00
      0.00000000000000E+00   0.00000000000000E+00   2.00684386940259E-10  -1.89245286868375E-19  -2.61719758322163E-08
     -2.59712914454653E-08  -3.17822801916750E-15   0.00000000000000E+00   0.00000000000000E+00   0.00000000000000E+00
      1.53215208072804E-10  -1.53130793396400E-19  -1.96886501220610E-08  -1.95354349141413E-08  -3.17844173284297E-15
      1.30000000000000E-12
      0.00000000000000E+00   0.00000000000000E+00   0.00000000000000E+00   1.10251227574313E-10  -1.53130295028588E-19
     -1.56972856625306E-08  -1.55870344351095E-08  -3.17918253692740E-15   2.00000000000000E+02   2.00000000000000E+02
      0.00000000000000E+00  -5.40818056082857E-07   5.82740138552985E-07   1.32511565845764E-13   4.19222149816940E-08
      1.68180837992662E-14   0.00000000000000E+00   0.00000000000000E+00   0.00000000000000E+00  -1.14038598474371E-12
     -1.53722455696905E-19  -4.70073334690824E-09  -4.70187373304670E-09  -3.20734841761783E-15   0.00000000000000E+00
      0.00000000000000E+00   0.00000000000000E+00  -4.06645573702904E-09  -1.63556019306128E-11  -2.84766205865313E-08
     -3.25594319254909E-08   7.04859465629372E-15   0.00000000000000E+00   0.00000000000000E+00   0.00000000000000E+00
     -4.20532929229191E-09  -7.76516595492286E-20   5.12080603046876E-07   5.07875273754506E-07  -1.58937506705537E-15
      0.00000000000000E+00   0.00000000000000E+00   0.00000000000000E+00   3.02951595887203E-09  -1.53731467546970E-19
     -3.59456166654200E-07  -3.56426650695482E-07  -3.17788967269240E-15   0.00000000000000E+00   0.00000000000000E+00
      0.00000000000000E+00   5.38229755384173E-10  -1.53726233616188E-19  -7.13177220707580E-08  -7.07794923155275E-08
     -3.17807250938434E-15   0.00000000000000E+00   0.00000000000000E+00   0.00000000000000E+00   2.34541407937557E-10
     -1.53724501917225E-19  -3.33019401718208E-08  -3.30673987640370E-08  -3.17813683401626E-15   0.00000000000000E+00
      0.00000000000000E+00   0.00000000000000E+00   1.38426808367912E-10  -1.89245244320894E-19  -2.10313059370272E-08
     -2.08928791288485E-08  -3.17823010739181E-15   0.00000000000000E+00   0.00000000000000E+00   0.00000000000000E+00
      1.05425008815669E-10  -1.53130759990097E-19  -1.58881527109173E-08  -1.57827277022548E-08  -3.17844331047448E-15
      1.40000000000000E-12