DF-ISE text

Info {
  version   = 1.0
  type      = xyplot
  datasets  = [
    "time"
    "PIX7 OuterVoltage" "PIX7 InnerVoltage" "PIX7 QuasiFermiPotential" "PIX7 DisplacementCurrent" "PIX7 eCurrent"
    "PIX7 hCurrent" "PIX7 TotalCurrent" "PIX7 Charge" "BACK OuterVoltage" "BACK InnerVoltage"
    "BACK QuasiFermiPotential" "BACK DisplacementCurrent" "BACK eCurrent" "BACK hCurrent" "BACK TotalCurrent"
    "BACK Charge" "PIX8 OuterVoltage" "PIX8 InnerVoltage" "PIX8 QuasiFermiPotential" "PIX8 DisplacementCurrent"
    "PIX8 eCurrent" "PIX8 hCurrent" "PIX8 TotalCurrent" "PIX8 Charge" "PIX9 OuterVoltage"
    "PIX9 InnerVoltage" "PIX9 QuasiFermiPotential" "PIX9 DisplacementCurrent" "PIX9 eCurrent" "PIX9 hCurrent"
    "PIX9 TotalCurrent" "PIX9 Charge" "PIX1 OuterVoltage" "PIX1 InnerVoltage" "PIX1 QuasiFermiPotential"
    "PIX1 DisplacementCurrent" "PIX1 eCurrent" "PIX1 hCurrent" "PIX1 TotalCurrent" "PIX1 Charge"
    "PIX2 OuterVoltage" "PIX2 InnerVoltage" "PIX2 QuasiFermiPotential" "PIX2 DisplacementCurrent" "PIX2 eCurrent"
    "PIX2 hCurrent" "PIX2 TotalCurrent" "PIX2 Charge" "PIX3 OuterVoltage" "PIX3 InnerVoltage"
    "PIX3 QuasiFermiPotential" "PIX3 DisplacementCurrent" "PIX3 eCurrent" "PIX3 hCurrent" "PIX3 TotalCurrent"
    "PIX3 Charge" "PIX4 OuterVoltage" "PIX4 InnerVoltage" "PIX4 QuasiFermiPotential" "PIX4 DisplacementCurrent"
    "PIX4 eCurrent" "PIX4 hCurrent" "PIX4 TotalCurrent" "PIX4 Charge" "PIX5 OuterVoltage"
    "PIX5 InnerVoltage" "PIX5 QuasiFermiPotential" "PIX5 DisplacementCurrent" "PIX5 eCurrent" "PIX5 hCurrent"
    "PIX5 TotalCurrent" "PIX5 Charge" "PIX6 OuterVoltage" "PIX6 InnerVoltage" "PIX6 QuasiFermiPotential"
    "PIX6 DisplacementCurrent" "PIX6 eCurrent" "PIX6 hCurrent" "PIX6 TotalCurrent" "PIX6 Charge" ]
  functions = [
    Time
    OuterVoltage InnerVoltage QuasiFermiPotential DisplacementCurrent eCurrent
    hCurrent TotalCurrent Charge OuterVoltage InnerVoltage
    QuasiFermiPotential DisplacementCurrent eCurrent hCurrent TotalCurrent
    Charge OuterVoltage InnerVoltage QuasiFermiPotential DisplacementCurrent
    eCurrent hCurrent TotalCurrent Charge OuterVoltage
    InnerVoltage QuasiFermiPotential DisplacementCurrent eCurrent hCurrent
    TotalCurrent Charge OuterVoltage InnerVoltage QuasiFermiPotential
    DisplacementCurrent eCurrent hCurrent TotalCurrent Charge
    OuterVoltage InnerVoltage QuasiFermiPotential DisplacementCurrent eCurrent
    hCurrent TotalCurrent Charge OuterVoltage InnerVoltage
    QuasiFermiPotential DisplacementCurrent eCurrent hCurrent TotalCurrent
    Charge OuterVoltage InnerVoltage QuasiFermiPotential DisplacementCurrent
    eCurrent hCurrent TotalCurrent Charge OuterVoltage
    InnerVoltage QuasiFermiPotential DisplacementCurrent eCurrent hCurrent
    TotalCurrent Charge OuterVoltage InnerVoltage QuasiFermiPotential
    DisplacementCurrent eCurrent hCurrent TotalCurrent Charge ]
}

Data {
      0.00000000000000E+00
      0.00000000000000E+00   0.00000000000000E+00   0.00000000000000E+00  -7.41639767642022E-30  -1.53131048027052E-19
     -4.31859537534063E-15  -4.31874850638866E-15  -3.17924148555976E-15   2.00000000000000E+02   2.00000000000000E+02
      0.00000000000000E+00   4.75915183161003E-25   1.72345153685824E-11   9.18008895593748E-15   1.72436954575388E-11
      1.68177494282920E-14   0.00000000000000E+00   0.00000000000000E+00   0.00000000000000E+00  -1.07125744214959E-29
     -1.53722664892220E-19  -4.81527078308231E-15  -4.81542450574721E-15  -3.20780957579879E-15   0.00000000000000E+00
      0.00000000000000E+00   0.00000000000000E+00   3.03775648826172E-26  -2.83087234932174E-11   1.10982231728070E-11
     -1.72105003204104E-11   7.07088673081416E-15   0.00000000000000E+00   0.00000000000000E+00   0.00000000000000E+00
      2.88415465194120E-30  -7.62087392901926E-20  -2.46869454736120E-15  -2.46877075610049E-15  -1.61914747595537E-15
      0.00000000000000E+00   0.00000000000000E+00   0.00000000000000E+00  -1.64808837253783E-30  -1.53788914581493E-19
     -4.32533135810606E-15  -4.32548514702064E-15  -3.17225982985196E-15   0.00000000000000E+00   0.00000000000000E+00
      0.00000000000000E+00  -1.07125744214959E-29  -1.53740597260605E-19  -4.31529881004926E-15  -4.31545255064653E-15
     -3.17675365052508E-15   0.00000000000000E+00   0.00000000000000E+00   0.00000000000000E+00  -8.24044186268913E-30
     -1.53731158912797E-19  -4.31641513268356E-15  -4.31656886384248E-15  -3.17760403665464E-15   0.00000000000000E+00
      0.00000000000000E+00   0.00000000000000E+00  -1.31847069803026E-29  -1.89248307215442E-19  -4.31692432986247E-15
     -4.31711357816970E-15  -3.17799024863341E-15   0.00000000000000E+00   0.00000000000000E+00   0.00000000000000E+00
     -1.23606627940337E-29  -1.53132060281153E-19  -4.31742008837359E-15  -4.31757322043388E-15  -3.17836422924232E-15
      1.00000000000000E-13
      0.00000000000000E+00   0.00000000000000E+00   0.00000000000000E+00   3.96674623587582E-07  -1.53103047339286E-19
      3.10524523118020E-06   3.50191985476763E-06  -3.17889129359549E-15   2.00000000000000E+02   2.00000000000000E+02
      0.00000000000000E+00  -1.97579166817498E-04   2.04945052648137E-04   1.58212708781976E-13   7.36588598885165E-06
      1.68184860151664E-14   0.00000000000000E+00   0.00000000000000E+00   0.00000000000000E+00   2.29870819240752E-07
     -1.53681457284003E-19   4.78375646605522E-06   5.01362728529582E-06  -3.20730821277800E-15   0.00000000000000E+00
      0.00000000000000E+00   0.00000000000000E+00  -2.11292221715885E-04  -1.61867730959320E-11  -4.07844439304554E-06
     -2.15370682295704E-04   7.04934966736761E-15   0.00000000000000E+00   0.00000000000000E+00   0.00000000000000E+00
     -3.13698478349056E-05  -7.58760413027653E-20   2.13277964932279E-04   1.81908117097373E-04  -1.60095667227583E-15
      0.00000000000000E+00   0.00000000000000E+00   0.00000000000000E+00   1.37607072535237E-05  -1.53732371170244E-19
     -1.28972762848181E-06   1.24709796250418E-05  -3.17101272889797E-15   0.00000000000000E+00   0.00000000000000E+00
      0.00000000000000E+00   2.98979170565785E-06  -1.53726249311847E-19  -5.50350339316143E-07   2.43944136634156E-06
     -3.17650970534193E-15   0.00000000000000E+00   0.00000000000000E+00   0.00000000000000E+00   1.32654712248372E-06
     -1.53713182840682E-19   1.01139897033993E-06   2.33794609282350E-06  -3.17737024161922E-15   0.00000000000000E+00
      0.00000000000000E+00   0.00000000000000E+00   7.73707967309153E-07  -1.89226727566093E-19   1.97152878514153E-06
      2.74523675245050E-06  -3.17771572478962E-15   0.00000000000000E+00   0.00000000000000E+00   0.00000000000000E+00
      5.21788695405213E-07  -1.53109016491951E-19   2.40947068950927E-06   2.93125938491433E-06  -3.17807110323597E-15
      2.00000000000000E-13
      0.00000000000000E+00   0.00000000000000E+00   0.00000000000000E+00  -8.86659947508017E-08  -1.53133857517633E-19
     -4.99611278123612E-07  -5.88277272874567E-07  -3.17895012124506E-15   2.00000000000000E+02   2.00000000000000E+02
      0.00000000000000E+00  -1.92213982973345E-05   1.89541006861103E-05   1.48532269628913E-13  -2.67297462691926E-07
      1.68184592836958E-14   0.00000000000000E+00   0.00000000000000E+00   0.00000000000000E+00  -1.11179101861532E-07
     -1.53719009189830E-19   3.61790892368731E-07   2.50611790507045E-07  -3.20728315101894E-15   0.00000000000000E+00
      0.00000000000000E+00   0.00000000000000E+00  -5.39487858586315E-08  -1.62267374457487E-11  -2.65906142084521E-06
     -2.71302643344129E-06   7.04907836496977E-15   0.00000000000000E+00   0.00000000000000E+00   0.00000000000000E+00
     -4.38196575537282E-06  -7.72781789821862E-20   4.68770381792690E-05   4.24950724238961E-05  -1.59670717840489E-15
      0.00000000000000E+00   0.00000000000000E+00   0.00000000000000E+00  -6.38241016767411E-07  -1.53944379287015E-19
     -2.65522728111630E-05  -2.71905138279306E-05  -3.17373177009811E-15   0.00000000000000E+00   0.00000000000000E+00
      0.00000000000000E+00  -1.48016654002318E-07  -1.53779069926523E-19  -6.68558741941344E-06  -6.83360407341591E-06
     -3.17719306337864E-15   0.00000000000000E+00   0.00000000000000E+00   0.00000000000000E+00  -8.64471482419709E-08
     -1.53744682040741E-19  -2.61546899898155E-06  -2.70191614722368E-06  -3.17764043228018E-15   0.00000000000000E+00
      0.00000000000000E+00   0.00000000000000E+00  -8.09419746721092E-08  -1.89256195036288E-19  -1.43676521983358E-06
     -1.51770719450588E-06  -3.17786749505791E-15   0.00000000000000E+00   0.00000000000000E+00   0.00000000000000E+00
     -7.92430730242788E-08  -1.53137112136606E-19  -8.54098729343821E-07  -9.33341802368253E-07  -3.17816443718187E-15
      3.00000000000000E-13
      0.00000000000000E+00   0.00000000000000E+00   0.00000000000000E+00   4.23463666637069E-09  -1.53132888931442E-19
     -3.56672971434078E-07  -3.52438334767861E-07  -3.17898536492488E-15   2.00000000000000E+02   2.00000000000000E+02
      0.00000000000000E+00  -6.14245093268309E-06   6.20711712640793E-06   1.44259280977103E-13   6.46663379841207E-08
      1.68184657486052E-14   0.00000000000000E+00   0.00000000000000E+00   0.00000000000000E+00  -3.56088338871394E-09
     -1.53720655980877E-19   1.90777117645318E-07   1.87216234256451E-07  -3.20726442863794E-15   0.00000000000000E+00
      0.00000000000000E+00   0.00000000000000E+00  -5.36001936683290E-09  -1.62404337906352E-11  -1.60244387785670E-06
     -1.60782013765733E-06   7.04891757993509E-15   0.00000000000000E+00   0.00000000000000E+00   0.00000000000000E+00
     -5.38541012266082E-07  -7.74554413668064E-20   2.53865971787315E-05   2.48480561664653E-05  -1.59422238936152E-15
      0.00000000000000E+00   0.00000000000000E+00   0.00000000000000E+00   2.48292899517231E-07  -1.53867771975865E-19
     -1.72333918490878E-05  -1.69850989495708E-05  -3.17543026504228E-15   0.00000000000000E+00   0.00000000000000E+00
      0.00000000000000E+00   8.22787900753184E-08  -1.53754262817662E-19  -3.61308117416152E-06  -3.53080238408635E-06
     -3.17754614042502E-15   0.00000000000000E+00   0.00000000000000E+00   0.00000000000000E+00   3.36112943849846E-08
     -1.53734927773488E-19  -1.38059127204118E-06  -1.34697997765635E-06  -3.17777512899498E-15   0.00000000000000E+00
      0.00000000000000E+00   0.00000000000000E+00   1.74483817951394E-08  -1.89251146867687E-19  -7.87389405595301E-07
     -7.69941023800350E-07  -3.17794448852602E-15   0.00000000000000E+00   0.00000000000000E+00   0.00000000000000E+00
      9.37806243286509E-09  -1.53134581440847E-19  -5.16235993519120E-07  -5.06857931086408E-07  -3.17821512262765E-15
      4.00000000000000E-13
      0.00000000000000E+00   0.00000000000000E+00   0.00000000000000E+00   3.56946066985344E-09  -1.53131962468510E-19
     -2.29924029174293E-07  -2.26354568504593E-07  -3.17900800017302E-15   2.00000000000000E+02   2.00000000000000E+02
      0.00000000000000E+00  -3.34778302759606E-06   3.48640239740375E-06   1.41658402526945E-13   1.38619511466090E-07
      1.68184796088320E-14   0.00000000000000E+00   0.00000000000000E+00   0.00000000000000E+00  -1.28787549048479E-09
     -1.53721318666088E-19   1.25779117513252E-07   1.24491242022614E-07  -3.20725197864222E-15   0.00000000000000E+00
      0.00000000000000E+00   0.00000000000000E+00  -3.96059264116296E-09  -1.62522864707534E-11  -9.74402623267889E-07
     -9.78379468195522E-07   7.04881973682239E-15   0.00000000000000E+00   0.00000000000000E+00   0.00000000000000E+00
     -2.49222968575992E-07  -7.75365437143636E-20   1.54406907753333E-05   1.51914678067573E-05  -1.59270326120462E-15
      0.00000000000000E+00   0.00000000000000E+00   0.00000000000000E+00   1.65473248719810E-07  -1.53816482578361E-19
     -1.09422923334154E-05  -1.07768190846957E-05  -3.17650792889184E-15   0.00000000000000E+00   0.00000000000000E+00
      0.00000000000000E+00   4.18702442410905E-08  -1.53741667498898E-19  -2.03530967238829E-06  -1.99343942814735E-06
     -3.17774548065980E-15   0.00000000000000E+00   0.00000000000000E+00   0.00000000000000E+00   1.65680928492394E-08
     -1.53730149824410E-19  -7.66676361338808E-07  -7.50108268489722E-07  -3.17785013833010E-15   0.00000000000000E+00
      0.00000000000000E+00   0.00000000000000E+00   9.19575296341302E-09  -1.89248488237565E-19  -4.42712145062087E-07
     -4.33516392098863E-07  -3.17798783941255E-15   0.00000000000000E+00   0.00000000000000E+00   0.00000000000000E+00
      5.89763156481226E-09  -1.53132963102678E-19  -3.01858981661754E-07  -2.95961350097094E-07  -3.17824471834021E-15
      5.00000000000000E-13
      0.00000000000000E+00   0.00000000000000E+00   0.00000000000000E+00   2.23583334776279E-09  -1.53131374595669E-19
     -1.50508062873695E-07  -1.48272229526085E-07  -3.17902282714859E-15   2.00000000000000E+02   2.00000000000000E+02
      0.00000000000000E+00  -2.23927776945691E-06   2.38225263470428E-06   1.39800588191006E-13   1.42975005047965E-07
      1.68184939046080E-14   0.00000000000000E+00   0.00000000000000E+00   0.00000000000000E+00  -9.32177983705688E-10
     -1.53721750623662E-19   8.14323476093714E-08   8.05001696255120E-08  -3.20724392767880E-15   0.00000000000000E+00
      0.00000000000000E+00   0.00000000000000E+00  -5.65343369856898E-09  -1.62644037956762E-11  -6.00220699297990E-07
     -6.05890397400354E-07   7.04875914128144E-15   0.00000000000000E+00   0.00000000000000E+00   0.00000000000000E+00
     -1.45673255342792E-07  -7.75831501726563E-20   9.65957809169725E-06   9.51390483635438E-06  -1.59175189072942E-15
      0.00000000000000E+00   0.00000000000000E+00   0.00000000000000E+00   1.02876880823562E-07  -1.53784642462698E-19
     -7.01323653173234E-06  -6.91035965090894E-06  -3.17719894478151E-15   0.00000000000000E+00   0.00000000000000E+00
      0.00000000000000E+00   2.17551620594566E-08  -1.53735182636700E-19  -1.21477803149026E-06  -1.19302286943096E-06
     -3.17786477890944E-15   0.00000000000000E+00   0.00000000000000E+00   0.00000000000000E+00   8.46244821916800E-09
     -1.53727747612803E-19  -4.53865363752381E-07  -4.45402915533367E-07  -3.17789467699551E-15   0.00000000000000E+00
      0.00000000000000E+00   0.00000000000000E+00   4.85432690641172E-09  -1.89247105642821E-19  -2.61464353549133E-07
     -2.56610026642910E-07  -3.17801349958573E-15   0.00000000000000E+00   0.00000000000000E+00   0.00000000000000E+00
      3.34433207530353E-09  -1.53132055914224E-19  -1.81166253556393E-07  -1.77821921481243E-07  -3.17826250006045E-15
      6.00000000000000E-13
      0.00000000000000E+00   0.00000000000000E+00   0.00000000000000E+00   1.46027329382894E-09  -1.53130980260591E-19
     -9.84454419157427E-08  -9.69851686220669E-08  -3.17903252539121E-15   2.00000000000000E+02   2.00000000000000E+02
      0.00000000000000E+00  -1.65855546457055E-06   1.79053332299307E-06   1.38350829470005E-13   1.31977996773356E-07
      1.68185071006833E-14   0.00000000000000E+00   0.00000000000000E+00   0.00000000000000E+00  -6.01929730370612E-10
     -1.53722014028104E-19   5.33013065426629E-08   5.26993768121386E-08  -3.20723865674407E-15   0.00000000000000E+00
      0.00000000000000E+00   0.00000000000000E+00  -6.58597904296955E-09  -1.62764039024580E-11  -3.74470013577076E-07
     -3.81072269023948E-07   7.04872102676082E-15   0.00000000000000E+00   0.00000000000000E+00   0.00000000000000E+00
     -8.85414057251263E-08  -7.76109473788661E-20   6.15637429047339E-06   6.06783288474819E-06  -1.59114512843409E-15
      0.00000000000000E+00   0.00000000000000E+00   0.00000000000000E+00   6.42647360252574E-08  -1.53764805588027E-19
     -4.55384669895549E-06  -4.48958196293039E-06  -3.17764788158825E-15   0.00000000000000E+00   0.00000000000000E+00
      0.00000000000000E+00   1.20983656614066E-08  -1.53731603868224E-19  -7.58941767008885E-07  -7.46843401347632E-07
     -3.17793945899775E-15   0.00000000000000E+00   0.00000000000000E+00   0.00000000000000E+00   4.72495182225978E-09
     -1.53726418748963E-19  -2.79785171208061E-07  -2.75060219385955E-07  -3.17792218130316E-15   0.00000000000000E+00
      0.00000000000000E+00   0.00000000000000E+00   2.77479043523585E-09  -1.89246320035523E-19  -1.58175135558964E-07
     -1.55400345123918E-07  -3.17802903874042E-15   0.00000000000000E+00   0.00000000000000E+00   0.00000000000000E+00
      1.99272164068551E-09  -1.53131514215699E-19  -1.09559613509857E-07  -1.07566891869325E-07  -3.17827325624514E-15
      7.00000000000000E-13
      0.00000000000000E+00   0.00000000000000E+00   0.00000000000000E+00   9.77191103164453E-10  -1.53130708343337E-19
     -6.34246975628409E-08  -6.24475064598296E-08  -3.17903876984901E-15   2.00000000000000E+02   2.00000000000000E+02
      0.00000000000000E+00  -1.30411055693295E-06   1.42491715463504E-06   1.37156370343925E-13   1.20806734858453E-07
      1.68185191796324E-14   0.00000000000000E+00   0.00000000000000E+00   0.00000000000000E+00  -3.63635859476172E-10
     -1.53722166235042E-19   3.63078213450345E-08   3.59441854854046E-08  -3.20723506129318E-15   0.00000000000000E+00
      0.00000000000000E+00   0.00000000000000E+00  -6.75514644598336E-09  -1.62878752910460E-11  -2.36633595724916E-07
     -2.43405030046190E-07   7.04869667852527E-15   0.00000000000000E+00   0.00000000000000E+00   0.00000000000000E+00
     -5.48791884462529E-08  -7.76277710147783E-20   3.98866188556836E-06   3.93378269712203E-06  -1.59075177189583E-15
      0.00000000000000E+00   0.00000000000000E+00   0.00000000000000E+00   4.03732202472407E-08  -1.53752385923953E-19
     -3.00730746173300E-06  -2.96693424148591E-06  -3.17794455275721E-15   0.00000000000000E+00   0.00000000000000E+00
      0.00000000000000E+00   7.08681718856471E-09  -1.53729519052603E-19  -4.92315633409754E-07  -4.85228816221343E-07
     -3.17798797748430E-15   0.00000000000000E+00   0.00000000000000E+00   0.00000000000000E+00   2.80799458782247E-09
     -1.53725630874211E-19  -1.76587488915366E-07  -1.73779494327697E-07  -3.17793955747924E-15   0.00000000000000E+00
      0.00000000000000E+00   0.00000000000000E+00   1.67088885464768E-09  -1.89245846443292E-19  -9.60962790575475E-08
     -9.44253902030891E-08  -3.17803848036610E-15   0.00000000000000E+00   0.00000000000000E+00   0.00000000000000E+00
      1.22766255152530E-09  -1.53131177634658E-19  -6.55408013897027E-08  -6.43131388383306E-08  -3.17827968703284E-15
      8.00000000000000E-13
      0.00000000000000E+00   0.00000000000000E+00   0.00000000000000E+00   6.60528956058376E-10  -1.53130519559786E-19
     -3.96337633390166E-08  -3.89732343831114E-08  -3.17904266686669E-15   2.00000000000000E+02   2.00000000000000E+02
      0.00000000000000E+00  -1.06681863167039E-06   1.17925023316436E-06   1.36135785715741E-13   1.12431737629752E-07
      1.68185304210818E-14   0.00000000000000E+00   0.00000000000000E+00   0.00000000000000E+00  -2.12493999915854E-10
     -1.53722249793532E-19   2.62852027596372E-08   2.60727087595676E-08  -3.20723245296445E-15   0.00000000000000E+00
      0.00000000000000E+00   0.00000000000000E+00  -6.48696543998980E-09  -1.62986395393637E-11  -1.51532383960636E-07
     -1.58035648040165E-07   7.04868086701796E-15   0.00000000000000E+00   0.00000000000000E+00   0.00000000000000E+00
     -3.45234333331150E-08  -7.76380193140691E-20   2.62636296904868E-06   2.59183953571549E-06  -1.59049261025715E-15
      0.00000000000000E+00   0.00000000000000E+00   0.00000000000000E+00   2.55403748691544E-08  -1.53744562511057E-19
     -2.02854875421661E-06  -2.00300837934761E-06  -3.17814483076104E-15   0.00000000000000E+00   0.00000000000000E+00
      0.00000000000000E+00   4.31895626503123E-09  -1.53728252635834E-19  -3.30031124184004E-07  -3.25712167919126E-07
     -3.17802054420777E-15   0.00000000000000E+00   0.00000000000000E+00   0.00000000000000E+00   1.73934308093506E-09
     -1.53725141093994E-19  -1.12758511611235E-07  -1.11019168530453E-07  -3.17795065758225E-15   0.00000000000000E+00
      0.00000000000000E+00   0.00000000000000E+00   1.03943454156314E-09  -1.89245549545250E-19  -5.75240593443851E-08
     -5.64846248030112E-08  -3.17804412789250E-15   0.00000000000000E+00   0.00000000000000E+00   0.00000000000000E+00
      7.72252371578309E-10  -1.53130961990706E-19  -3.78830114077402E-08  -3.71107590363150E-08  -3.17828339756787E-15
      9.00000000000000E-13
      0.00000000000000E+00   0.00000000000000E+00   0.00000000000000E+00   4.48336279249004E-10  -1.53130387539297E-19
     -2.34167039455449E-08  -2.29683676664490E-08  -3.17904496338865E-15   2.00000000000000E+02   2.00000000000000E+02
      0.00000000000000E+00  -8.98154091601852E-07   1.00480091168308E-06   1.35240768365115E-13   1.06646955322001E-07
      1.68185410840530E-14   0.00000000000000E+00   0.00000000000000E+00   0.00000000000000E+00  -1.22012801923397E-10
     -1.53722293998367E-19   2.04387419623327E-08   2.03167291602556E-08  -3.20723042021448E-15   0.00000000000000E+00
      0.00000000000000E+00   0.00000000000000E+00  -6.01757849997951E-09  -1.63086352763222E-11  -9.84038029593770E-08
     -1.04437690094633E-07   7.04867041524458E-15   0.00000000000000E+00   0.00000000000000E+00   0.00000000000000E+00
     -2.20047513120634E-08  -7.76442635021214E-20   1.75862347514625E-06   1.73661872383411E-06  -1.59031897118384E-15
      0.00000000000000E+00   0.00000000000000E+00   0.00000000000000E+00   1.62971486309479E-08  -1.53739596293677E-19
     -1.40392629447446E-06  -1.38762914584366E-06  -3.17828357044726E-15   0.00000000000000E+00   0.00000000000000E+00
      0.00000000000000E+00   2.71441245426092E-09  -1.53727458448072E-19  -2.28130478410082E-07  -2.25416065955975E-07
     -3.17804308125175E-15   0.00000000000000E+00   0.00000000000000E+00   0.00000000000000E+00   1.10799820946861E-09
     -1.53724826843359E-19  -7.21256470926836E-08  -7.10176488833687E-08  -3.17795775750485E-15   0.00000000000000E+00
      0.00000000000000E+00   0.00000000000000E+00   6.60745889247065E-10  -1.89245359419219E-19  -3.30239705031162E-08
     -3.23632246140584E-08  -3.17804736326312E-15   0.00000000000000E+00   0.00000000000000E+00   0.00000000000000E+00
      4.92876241686750E-10  -1.53130822093625E-19  -2.02431415173535E-08  -1.97502652758199E-08  -3.17828537204347E-15
      1.00000000000000E-12
      0.00000000000000E+00   0.00000000000000E+00   0.00000000000000E+00   3.05172237458189E-10  -1.53130294990820E-19
     -1.23401825522260E-08  -1.20350103149209E-08  -3.17904616656852E-15   2.00000000000000E+02   2.00000000000000E+02
      0.00000000000000E+00  -7.73107631859979E-07   8.75851792312498E-07   1.34440422967973E-13   1.02744294892942E-07
      1.68185513567580E-14   0.00000000000000E+00   0.00000000000000E+00   0.00000000000000E+00  -6.92269660277199E-11
     -1.53722314693486E-19   1.70459362675250E-08   1.69767093013435E-08  -3.20722872145141E-15   0.00000000000000E+00
      0.00000000000000E+00   0.00000000000000E+00  -5.48317444125914E-09  -1.63178997833713E-11  -6.48399278746695E-08
     -7.03394202157120E-08   7.04866337333292E-15   0.00000000000000E+00   0.00000000000000E+00   0.00000000000000E+00
     -1.42072762163306E-08  -7.76480444568929E-20   1.19863814066293E-06   1.18443086444652E-06  -1.59020055131569E-15
      0.00000000000000E+00   0.00000000000000E+00   0.00000000000000E+00   1.05072055174083E-08  -1.53736414938108E-19
     -1.00122653711221E-06  -9.90719331594952E-07  -3.17838261887813E-15   0.00000000000000E+00   0.00000000000000E+00
      0.00000000000000E+00   1.74875997451319E-09  -1.53726945941274E-19  -1.62519810953071E-07  -1.60771050978712E-07
     -3.17805915374393E-15   0.00000000000000E+00   0.00000000000000E+00   0.00000000000000E+00   7.20564163375786E-10
     -1.53724619769075E-19  -4.57061621586891E-08  -4.49855979954671E-08  -3.17796225420185E-15   0.00000000000000E+00
      0.00000000000000E+00   0.00000000000000E+00   4.27106484326067E-10  -1.89245234713975E-19  -1.71970175692368E-08
     -1.67699110851000E-08  -3.17804903929121E-15   0.00000000000000E+00   0.00000000000000E+00   0.00000000000000E+00
      3.18515481422489E-10  -1.53130729317882E-19  -8.85006190444831E-09  -8.53154642317895E-09  -3.17828622464014E-15
      1.10000000000000E-12
      0.00000000000000E+00   0.00000000000000E+00   0.00000000000000E+00   2.08549125807044E-10  -1.53130229772363E-19
     -4.75071515247349E-09  -4.54216602681958E-09  -3.17904662045945E-15   2.00000000000000E+02   2.00000000000000E+02
      0.00000000000000E+00  -6.77347227899671E-07   7.77488901234196E-07   1.33713881559401E-13   1.00141807048406E-07
      1.68185613692143E-14   0.00000000000000E+00   0.00000000000000E+00   0.00000000000000E+00  -3.87361904565228E-11
     -1.53722323666046E-19   1.50863516563433E-08   1.50476154657330E-08  -3.20722721558544E-15   0.00000000000000E+00
      0.00000000000000E+00   0.00000000000000E+00  -4.95449578696892E-09  -1.63265132152141E-11  -4.33519726326794E-08
     -4.83227949328635E-08   7.04865853318246E-15   0.00000000000000E+00   0.00000000000000E+00   0.00000000000000E+00
     -9.29857767806448E-09  -7.76502964095944E-20   8.32272834485379E-07   8.22974256807237E-07  -1.59011827748377E-15
      0.00000000000000E+00   0.00000000000000E+00   0.00000000000000E+00   6.85635364033224E-09  -1.53734355702054E-19
     -7.38482157365560E-07  -7.31625803725382E-07  -3.17845575776204E-15   0.00000000000000E+00   0.00000000000000E+00
      0.00000000000000E+00   1.15056121189307E-09  -1.53726608884023E-19  -1.19365879383126E-07  -1.18215318171386E-07
     -3.17807097062528E-15   0.00000000000000E+00   0.00000000000000E+00   0.00000000000000E+00   4.76894749143350E-10
     -1.53724481086218E-19  -2.82191243814274E-08  -2.77422296324378E-08  -3.17796502654687E-15   0.00000000000000E+00
      0.00000000000000E+00   0.00000000000000E+00   2.80447793127341E-10  -1.89245151353064E-19  -6.81027870902162E-09
     -6.52983091608353E-09  -3.17804969130319E-15   0.00000000000000E+00   0.00000000000000E+00   0.00000000000000E+00
      2.08548803105029E-10  -1.53130666726074E-19  -1.39408483107765E-09  -1.18553602812575E-09  -3.17828634263076E-15
      1.20000000000000E-12
      0.00000000000000E+00   0.00000000000000E+00   0.00000000000000E+00   1.43418536838863E-10  -1.53130183411943E-19
      4.79251976323134E-10   6.22670513008867E-10  -3.17904655786351E-15   2.00000000000000E+02   2.00000000000000E+02
      0.00000000000000E+00  -6.02031708425837E-07   7.00478882790811E-07   1.33046450219089E-13   9.84473074114241E-08
      1.68185712122207E-14   0.00000000000000E+00   0.00000000000000E+00   0.00000000000000E+00  -2.11442750182903E-11
     -1.53722325539327E-19   1.39663251079659E-08   1.39451808327939E-08  -3.20722581995257E-15   0.00000000000000E+00
      0.00000000000000E+00   0.00000000000000E+00  -4.46444331621753E-09  -1.63345351075893E-11  -2.93829393267038E-08
     -3.38637171780289E-08   7.04865513908141E-15   0.00000000000000E+00   0.00000000000000E+00   0.00000000000000E+00
     -6.17814264629298E-09  -7.76515938433153E-20   5.88939958203413E-07   5.82761815557043E-07  -1.59006002524090E-15
      0.00000000000000E+00   0.00000000000000E+00   0.00000000000000E+00   4.53609041885059E-09  -1.53733006078664E-19
     -5.64685566736344E-07  -5.60149476317647E-07  -3.17851174887316E-15   0.00000000000000E+00   0.00000000000000E+00
      0.00000000000000E+00   7.71613236679786E-10  -1.53726382821765E-19  -9.04285749204834E-08  -8.96569616839574E-08
     -3.17807993164226E-15   0.00000000000000E+00   0.00000000000000E+00   0.00000000000000E+00   3.21116605205825E-10
     -1.53724385407618E-19  -1.64413961498973E-08  -1.61202795448452E-08  -3.17796663668543E-15   0.00000000000000E+00
      0.00000000000000E+00   0.00000000000000E+00   1.87341996830789E-10  -1.89245094410906E-19   1.24717730261986E-10
      3.12059726903530E-10  -3.17804965912015E-15   0.00000000000000E+00   0.00000000000000E+00   0.00000000000000E+00
      1.38693279197413E-10  -1.53130623607357E-19   3.56270743313047E-09   3.70140071217475E-09  -3.17828597192409E-15
      1.30000000000000E-12
      0.00000000000000E+00   0.00000000000000E+00   0.00000000000000E+00   9.95709856370820E-11  -1.53130150033670E-19
      4.11619744860276E-09   4.21576843408671E-09  -3.17904613595547E-15   2.00000000000000E+02   2.00000000000000E+02
      0.00000000000000E+00  -5.41422857507997E-07   6.38829277169134E-07   1.32427430998301E-13   9.74065520885680E-08
      1.68185809511514E-14   0.00000000000000E+00   0.00000000000000E+00   0.00000000000000E+00  -1.08969858635276E-11
     -1.53722323617876E-19   1.33424628054300E-08   1.33315658194127E-08  -3.20722448567224E-15   0.00000000000000E+00
      0.00000000000000E+00   0.00000000000000E+00  -4.02527211837052E-09  -1.63420315442631E-11  -2.01395120412258E-08
     -2.41811261911406E-08   7.04865271341001E-15   0.00000000000000E+00   0.00000000000000E+00   0.00000000000000E+00
     -4.17512558307227E-09  -7.76522922461261E-20   4.24557432608000E-07   4.20382307024850E-07  -1.59001801127140E-15
      0.00000000000000E+00   0.00000000000000E+00   0.00000000000000E+00   3.04804361432049E-09  -1.53732110442226E-19
     -4.47929026448203E-07  -4.44880982834036E-07  -3.17855621303256E-15   0.00000000000000E+00   0.00000000000000E+00
      0.00000000000000E+00   5.27206148782391E-10  -1.53726227448398E-19  -7.06581849647045E-08  -7.01309788160758E-08
     -3.17808694003854E-15   0.00000000000000E+00   0.00000000000000E+00   0.00000000000000E+00   2.20274184161828E-10
     -1.53724319252673E-19  -8.35874978164422E-09  -8.13847559763611E-09  -3.17796744863480E-15   0.00000000000000E+00
      0.00000000000000E+00   0.00000000000000E+00   1.27690423106286E-10  -1.89245054525265E-19   4.85011713764487E-09
      4.97780756056191E-09  -3.17804916035785E-15   0.00000000000000E+00   0.00000000000000E+00   0.00000000000000E+00
      9.40284291288525E-11  -1.53130593157249E-19   6.92353410566988E-09   7.01756253464560E-09  -3.17828526959859E-15
      1.40000000000000E-12