DF-ISE text

Info {
  version   = 1.0
  type      = xyplot
  datasets  = [
    "time"
    "PIX7 OuterVoltage" "PIX7 InnerVoltage" "PIX7 QuasiFermiPotential" "PIX7 DisplacementCurrent" "PIX7 eCurrent"
    "PIX7 hCurrent" "PIX7 TotalCurrent" "PIX7 Charge" "BACK OuterVoltage" "BACK InnerVoltage"
    "BACK QuasiFermiPotential" "BACK DisplacementCurrent" "BACK eCurrent" "BACK hCurrent" "BACK TotalCurrent"
    "BACK Charge" "PIX8 OuterVoltage" "PIX8 InnerVoltage" "PIX8 QuasiFermiPotential" "PIX8 DisplacementCurrent"
    "PIX8 eCurrent" "PIX8 hCurrent" "PIX8 TotalCurrent" "PIX8 Charge" "PIX9 OuterVoltage"
    "PIX9 InnerVoltage" "PIX9 QuasiFermiPotential" "PIX9 DisplacementCurrent" "PIX9 eCurrent" "PIX9 hCurrent"
    "PIX9 TotalCurrent" "PIX9 Charge" "PIX1 OuterVoltage" "PIX1 InnerVoltage" "PIX1 QuasiFermiPotential"
    "PIX1 DisplacementCurrent" "PIX1 eCurrent" "PIX1 hCurrent" "PIX1 TotalCurrent" "PIX1 Charge"
    "PIX2 OuterVoltage" "PIX2 InnerVoltage" "PIX2 QuasiFermiPotential" "PIX2 DisplacementCurrent" "PIX2 eCurrent"
    "PIX2 hCurrent" "PIX2 TotalCurrent" "PIX2 Charge" "PIX3 OuterVoltage" "PIX3 InnerVoltage"
    "PIX3 QuasiFermiPotential" "PIX3 DisplacementCurrent" "PIX3 eCurrent" "PIX3 hCurrent" "PIX3 TotalCurrent"
    "PIX3 Charge" "PIX4 OuterVoltage" "PIX4 InnerVoltage" "PIX4 QuasiFermiPotential" "PIX4 DisplacementCurrent"
    "PIX4 eCurrent" "PIX4 hCurrent" "PIX4 TotalCurrent" "PIX4 Charge" "PIX5 OuterVoltage"
    "PIX5 InnerVoltage" "PIX5 QuasiFermiPotential" "PIX5 DisplacementCurrent" "PIX5 eCurrent" "PIX5 hCurrent"
    "PIX5 TotalCurrent" "PIX5 Charge" "PIX6 OuterVoltage" "PIX6 InnerVoltage" "PIX6 QuasiFermiPotential"
    "PIX6 DisplacementCurrent" "PIX6 eCurrent" "PIX6 hCurrent" "PIX6 TotalCurrent" "PIX6 Charge" ]
  functions = [
    Time
    OuterVoltage InnerVoltage QuasiFermiPotential DisplacementCurrent eCurrent
    hCurrent TotalCurrent Charge OuterVoltage InnerVoltage
    QuasiFermiPotential DisplacementCurrent eCurrent hCurrent TotalCurrent
    Charge OuterVoltage InnerVoltage QuasiFermiPotential DisplacementCurrent
    eCurrent hCurrent TotalCurrent Charge OuterVoltage
    InnerVoltage QuasiFermiPotential DisplacementCurrent eCurrent hCurrent
    TotalCurrent Charge OuterVoltage InnerVoltage QuasiFermiPotential
    DisplacementCurrent eCurrent hCurrent TotalCurrent Charge
    OuterVoltage InnerVoltage QuasiFermiPotential DisplacementCurrent eCurrent
    hCurrent TotalCurrent Charge OuterVoltage InnerVoltage
    QuasiFermiPotential DisplacementCurrent eCurrent hCurrent TotalCurrent
    Charge OuterVoltage InnerVoltage QuasiFermiPotential DisplacementCurrent
    eCurrent hCurrent TotalCurrent Charge OuterVoltage
    InnerVoltage QuasiFermiPotential DisplacementCurrent eCurrent hCurrent
    TotalCurrent Charge OuterVoltage InnerVoltage QuasiFermiPotential
    DisplacementCurrent eCurrent hCurrent TotalCurrent Charge ]
}

Data {
      0.00000000000000E+00
      0.00000000000000E+00   0.00000000000000E+00   0.00000000000000E+00  -7.41639767642022E-30  -1.53131048027052E-19
     -4.31859537534063E-15  -4.31874850638866E-15  -3.17924148555976E-15   2.00000000000000E+02   2.00000000000000E+02
      0.00000000000000E+00   4.38787048304471E-25   1.71234281025646E-11   1.20267354973734E-13   1.72436954575388E-11
      1.68177494282920E-14   0.00000000000000E+00   0.00000000000000E+00   0.00000000000000E+00  -1.07125744214959E-29
     -1.53722664892220E-19  -4.81527078308231E-15  -4.81542450574721E-15  -3.20780957579879E-15   0.00000000000000E+00
      0.00000000000000E+00   0.00000000000000E+00   6.75056997391493E-27  -1.71999968914495E-11  -1.05034289609497E-14
     -1.72105003204104E-11   7.07088673081415E-15   0.00000000000000E+00   0.00000000000000E+00   0.00000000000000E+00
      2.88415465194120E-30  -7.62087392901926E-20  -2.46869454736120E-15  -2.46877075610049E-15  -1.61914747595537E-15
      0.00000000000000E+00   0.00000000000000E+00   0.00000000000000E+00  -1.64808837253783E-30  -1.53788914581493E-19
     -4.32533135810606E-15  -4.32548514702064E-15  -3.17225982985196E-15   0.00000000000000E+00   0.00000000000000E+00
      0.00000000000000E+00  -1.07125744214959E-29  -1.53740597260605E-19  -4.31529881004926E-15  -4.31545255064653E-15
     -3.17675365052508E-15   0.00000000000000E+00   0.00000000000000E+00   0.00000000000000E+00  -8.24044186268913E-30
     -1.53731158912797E-19  -4.31641513268356E-15  -4.31656886384248E-15  -3.17760403665464E-15   0.00000000000000E+00
      0.00000000000000E+00   0.00000000000000E+00  -1.31847069803026E-29  -1.89248307215442E-19  -4.31692432986247E-15
     -4.31711357816970E-15  -3.17799024863341E-15   0.00000000000000E+00   0.00000000000000E+00   0.00000000000000E+00
     -1.23606627940337E-29  -1.53132060281153E-19  -4.31742008837359E-15  -4.31757322043388E-15  -3.17836422924232E-15
      1.00000000000000E-13
      0.00000000000000E+00   0.00000000000000E+00   0.00000000000000E+00   3.80402064187737E-07  -1.53108268112772E-19
      2.47322241441675E-06   2.85362447860433E-06  -3.17895612311144E-15   2.00000000000000E+02   2.00000000000000E+02
      0.00000000000000E+00  -1.97694081696987E-04   2.00843516370687E-04   1.58181991015160E-13   3.14943483188234E-06
      1.68180643700507E-14   0.00000000000000E+00   0.00000000000000E+00   0.00000000000000E+00   2.15048556869712E-07
     -1.53686183060461E-19   4.21287139500491E-06   4.42791995187446E-06  -3.20736678349633E-15   0.00000000000000E+00
      0.00000000000000E+00   0.00000000000000E+00  -2.11310582541129E-04  -1.62033530878508E-11  -4.34119420533659E-06
     -2.15651792949819E-04   7.04932155647891E-15   0.00000000000000E+00   0.00000000000000E+00   0.00000000000000E+00
     -3.12773495029844E-05  -7.58465431362915E-20   2.16806534200462E-04   1.85529184697478E-04  -1.60059456557886E-15
      0.00000000000000E+00   0.00000000000000E+00   0.00000000000000E+00   1.38629219087794E-05  -1.53700035378331E-19
      2.62884536170920E-06   1.64917672704884E-05  -3.17061065032327E-15   0.00000000000000E+00   0.00000000000000E+00
      0.00000000000000E+00   3.00082840805764E-06  -1.53722835592095E-19  -1.32292789357838E-07   2.86853561869965E-06
     -3.17646679595314E-15   0.00000000000000E+00   0.00000000000000E+00   0.00000000000000E+00   1.30861966920742E-06
     -1.53718918746759E-19   3.19599592177451E-07   1.62821926138472E-06  -3.17744121428351E-15   0.00000000000000E+00
      0.00000000000000E+00   0.00000000000000E+00   7.51713363208029E-07  -1.89233775134980E-19   1.11857041098018E-06
      1.87028377418802E-06  -3.17780322005612E-15   0.00000000000000E+00   0.00000000000000E+00   0.00000000000000E+00
      5.02845822617645E-07  -1.53115093989093E-19   1.67370839485244E-06   2.17655421746993E-06  -3.17814657372700E-15
      2.00000000000000E-13
      0.00000000000000E+00   0.00000000000000E+00   0.00000000000000E+00  -7.77140382593544E-08  -1.53135527031905E-19
     -7.05537757705639E-07  -7.83251795965146E-07  -3.17903444818022E-15   2.00000000000000E+02   2.00000000000000E+02
      0.00000000000000E+00  -1.91564734924665E-05   1.77941188604378E-05   1.48499485599967E-13  -1.36235448352930E-06
      1.68179281328780E-14   0.00000000000000E+00   0.00000000000000E+00   0.00000000000000E+00  -1.01089408061941E-07
     -1.53720501999929E-19   1.77940512739891E-07   7.68511046777953E-08  -3.20735909778309E-15   0.00000000000000E+00
      0.00000000000000E+00   0.00000000000000E+00  -4.64898429209802E-08  -1.62407465251371E-11  -2.74725330609526E-06
     -2.79375938976276E-06   7.04904218103336E-15   0.00000000000000E+00   0.00000000000000E+00   0.00000000000000E+00
     -4.44354732814690E-06  -7.72683395266784E-20   4.80797572512903E-05   4.36362099231433E-05  -1.59623095806023E-15
      0.00000000000000E+00   0.00000000000000E+00   0.00000000000000E+00  -7.08401758594311E-07  -1.53934350824177E-19
     -2.53117356411875E-05  -2.60201373997819E-05  -3.17321265415858E-15   0.00000000000000E+00   0.00000000000000E+00
      0.00000000000000E+00  -1.58239014690656E-07  -1.53778850656063E-19  -6.65442900944480E-06  -6.81266802413561E-06
     -3.17714806042897E-15   0.00000000000000E+00   0.00000000000000E+00   0.00000000000000E+00  -7.59302926882051E-08
     -1.53747029062503E-19  -2.90289195728004E-06  -2.97882224996840E-06  -3.17773909552137E-15   0.00000000000000E+00
      0.00000000000000E+00   0.00000000000000E+00  -6.64616349952690E-08  -1.89258561322788E-19  -1.72808431937859E-06
     -1.79454595437405E-06  -3.17798267415270E-15   0.00000000000000E+00   0.00000000000000E+00   0.00000000000000E+00
     -6.66755371523181E-08  -1.53139113535306E-19  -1.10084619323417E-06  -1.16752173038664E-06  -3.17826332562625E-15
      3.00000000000000E-13
      0.00000000000000E+00   0.00000000000000E+00   0.00000000000000E+00   7.28085227196043E-09  -1.53133583099087E-19
     -4.44567809528588E-07  -4.37286957256781E-07  -3.17907817668311E-15   2.00000000000000E+02   2.00000000000000E+02
      0.00000000000000E+00  -6.12417613209093E-06   5.78832777132918E-06   1.44228525336342E-13  -3.35848216533218E-07
      1.68178945463321E-14   0.00000000000000E+00   0.00000000000000E+00   0.00000000000000E+00  -8.39849037415474E-10
     -1.53721275588835E-19   1.12380699798084E-07   1.11540850760515E-07  -3.20734794291354E-15   0.00000000000000E+00
      0.00000000000000E+00   0.00000000000000E+00  -2.71344019656186E-09  -1.62528637350839E-11  -1.63867618336266E-06
     -1.64140587642295E-06   7.04887803770130E-15   0.00000000000000E+00   0.00000000000000E+00   0.00000000000000E+00
     -5.56382668552522E-07  -7.74513686380689E-20   2.58993888873591E-05   2.53430062188065E-05  -1.59369667413690E-15
      0.00000000000000E+00   0.00000000000000E+00   0.00000000000000E+00   2.28940619889084E-07  -1.53863894657930E-19
     -1.67395052983299E-05  -1.65105646784410E-05  -3.17486369599352E-15   0.00000000000000E+00   0.00000000000000E+00
      0.00000000000000E+00   8.09062964261207E-08  -1.53754460824813E-19  -3.63451065829482E-06  -3.55360436186885E-06
     -3.17750341771714E-15   0.00000000000000E+00   0.00000000000000E+00   0.00000000000000E+00   3.75203847944127E-08
     -1.53736016514344E-19  -1.51671798789809E-06  -1.47919760310383E-06  -3.17788701395655E-15   0.00000000000000E+00
      0.00000000000000E+00   0.00000000000000E+00   2.18063539391948E-08  -1.89252115615501E-19  -9.09752678990643E-07
     -8.87946325051638E-07  -3.17807146809515E-15   0.00000000000000E+00   0.00000000000000E+00   0.00000000000000E+00
      1.30235217732286E-08  -1.53135415080566E-19  -6.21716572635775E-07  -6.08693050862699E-07  -3.17832419453733E-15
      4.00000000000000E-13
      0.00000000000000E+00   0.00000000000000E+00   0.00000000000000E+00   4.52088653885719E-09  -1.53132356520888E-19
     -2.81060174000123E-07  -2.76539287461419E-07  -3.17910583036049E-15   2.00000000000000E+02   2.00000000000000E+02
      0.00000000000000E+00  -3.34109108859350E-06   3.28126141172883E-06   1.41630274528935E-13  -5.98295352343919E-08
      1.68178885616541E-14   0.00000000000000E+00   0.00000000000000E+00   0.00000000000000E+00  -4.56503422792106E-10
     -1.53721672590928E-19   7.98518646154371E-08   7.93953611924913E-08  -3.20734000247662E-15   0.00000000000000E+00
      0.00000000000000E+00   0.00000000000000E+00  -3.11843788380163E-09  -1.62641116444885E-11  -9.94684081198899E-07
     -9.97818783194345E-07   7.04877825094555E-15   0.00000000000000E+00   0.00000000000000E+00   0.00000000000000E+00
     -2.55062828513529E-07  -7.75343640646836E-20   1.57240498082175E-05   1.54689869797039E-05  -1.59214979420208E-15
      0.00000000000000E+00   0.00000000000000E+00   0.00000000000000E+00   1.59529878077238E-07  -1.53814485593237E-19
     -1.06796623950575E-05  -1.05201325169804E-05  -3.17591569152291E-15   0.00000000000000E+00   0.00000000000000E+00
      0.00000000000000E+00   4.19258522085847E-08  -1.53741840059745E-19  -2.05476655922548E-06  -2.01284070701705E-06
     -3.17770469812232E-15   0.00000000000000E+00   0.00000000000000E+00   0.00000000000000E+00   1.80653001648162E-08
     -1.53730758496988E-19  -8.44591455052163E-07  -8.26526154887500E-07  -3.17796966503289E-15   0.00000000000000E+00
      0.00000000000000E+00   0.00000000000000E+00   1.06097666156354E-08  -1.89249008140730E-19  -5.10252891638586E-07
     -4.99643125023139E-07  -3.17812143159500E-15   0.00000000000000E+00   0.00000000000000E+00   0.00000000000000E+00
      7.06793869061098E-09  -1.53133427352280E-19  -3.62120169835320E-07  -3.55052231144862E-07  -3.17835969928731E-15
      5.00000000000000E-13
      0.00000000000000E+00   0.00000000000000E+00   0.00000000000000E+00   2.61353599614591E-09  -1.53131651040809E-19
     -1.87072872190607E-07  -1.84459336194615E-07  -3.17912427600179E-15   2.00000000000000E+02   2.00000000000000E+02
      0.00000000000000E+00  -2.23569088903586E-06   2.25634077710280E-06   1.39775160715023E-13   2.06500278421085E-08
      1.68178906249325E-14   0.00000000000000E+00   0.00000000000000E+00   0.00000000000000E+00  -6.03246826395854E-10
     -1.53722000600607E-19   4.83824049056894E-08   4.77791580791398E-08  -3.20733522358349E-15   0.00000000000000E+00
      0.00000000000000E+00   0.00000000000000E+00  -5.36240198446666E-09  -1.62760193439675E-11  -6.14574659950118E-07
     -6.19953337953928E-07   7.04871624940462E-15   0.00000000000000E+00   0.00000000000000E+00   0.00000000000000E+00
     -1.48064062219216E-07  -7.75817389575671E-20   9.84844275014318E-06   9.70037868792389E-06  -1.59117977649059E-15
      0.00000000000000E+00   0.00000000000000E+00   0.00000000000000E+00   1.00599712932705E-07  -1.53783358195128E-19
     -6.83954243167462E-06  -6.73894271874207E-06  -3.17658956606571E-15   0.00000000000000E+00   0.00000000000000E+00
      0.00000000000000E+00   2.19204976580724E-08  -1.53735298983980E-19  -1.22792591836054E-06  -1.20600542070262E-06
     -3.17782529466819E-15   0.00000000000000E+00   0.00000000000000E+00   0.00000000000000E+00   9.11246065317359E-09
     -1.53728149554092E-19  -5.06452681263497E-07  -4.97340220610477E-07  -3.17801939737809E-15   0.00000000000000E+00
      0.00000000000000E+00   0.00000000000000E+00   5.40085525349504E-09  -1.89247454431625E-19  -3.07816481400328E-07
     -3.02415626147022E-07  -3.17815167226571E-15   0.00000000000000E+00   0.00000000000000E+00   0.00000000000000E+00
      3.80905516924172E-09  -1.53132375593660E-19  -2.23500268671585E-07  -2.19691213502496E-07  -3.17838166788351E-15
      6.00000000000000E-13
      0.00000000000000E+00   0.00000000000000E+00   0.00000000000000E+00   1.64071285447040E-09  -1.53131201705917E-19
     -1.28051394468703E-07  -1.26410681614386E-07  -3.17913691674907E-15   2.00000000000000E+02   2.00000000000000E+02
      0.00000000000000E+00  -1.65609972235507E-06   1.69970790437157E-06   1.38327965549254E-13   4.36083203444702E-08
      1.68178949840402E-14   0.00000000000000E+00   0.00000000000000E+00   0.00000000000000E+00  -4.43607861179206E-10
     -1.53722214782042E-19   2.64435116355894E-08   2.59999037742565E-08  -3.20733262256403E-15   0.00000000000000E+00
      0.00000000000000E+00   0.00000000000000E+00  -6.47906614840024E-09  -1.62879551187804E-11  -3.86198318589836E-07
     -3.92693672693355E-07   7.04867697304103E-15   0.00000000000000E+00   0.00000000000000E+00   0.00000000000000E+00
     -8.96851356881278E-08  -7.76098972269106E-20   6.30006077755057E-06   6.21037564186237E-06  -1.59055876007556E-15
      0.00000000000000E+00   0.00000000000000E+00   0.00000000000000E+00   6.32394560803155E-08  -1.53763836574416E-19
     -4.42021551097743E-06  -4.35697605489727E-06  -3.17702524263397E-15   0.00000000000000E+00   0.00000000000000E+00
      0.00000000000000E+00   1.22164530822500E-08  -1.53731680854726E-19  -7.67546932350257E-07  -7.55330479268161E-07
     -3.17790082350437E-15   0.00000000000000E+00   0.00000000000000E+00   0.00000000000000E+00   5.03720238855304E-09
     -1.53726722932574E-19  -3.20198191762154E-07  -3.15160989373755E-07  -3.17805091170970E-15   0.00000000000000E+00
      0.00000000000000E+00   0.00000000000000E+00   3.01712644731707E-09  -1.89246594365157E-19  -1.95133704363860E-07
     -1.92116577916732E-07  -3.17817088297952E-15   0.00000000000000E+00   0.00000000000000E+00   0.00000000000000E+00
      2.21033158828209E-09  -1.53131767303930E-19  -1.43505741751959E-07  -1.41295410163830E-07  -3.17839579686491E-15
      7.00000000000000E-13
      0.00000000000000E+00   0.00000000000000E+00   0.00000000000000E+00   1.07491105578272E-09  -1.53130900244010E-19
     -8.92619642283082E-08  -8.81870531726786E-08  -3.17914573511354E-15   2.00000000000000E+02   2.00000000000000E+02
      0.00000000000000E+00  -1.30220185430089E-06   1.35112111213751E-06   1.37135936405748E-13   4.89193949725621E-08
      1.68178998742552E-14   0.00000000000000E+00   0.00000000000000E+00   0.00000000000000E+00  -2.77115157404358E-10
     -1.53722340554117E-19   1.28271164006237E-08   1.25500012430656E-08  -3.20733136649857E-15   0.00000000000000E+00
      0.00000000000000E+00   0.00000000000000E+00  -6.72035796249174E-09  -1.62994260363789E-11  -2.47025714710901E-07
     -2.53762372099429E-07   7.04865158937136E-15   0.00000000000000E+00   0.00000000000000E+00   0.00000000000000E+00
     -5.54807182355870E-08  -7.76269066701871E-20   4.10864244481209E-06   4.05316172657643E-06  -1.59015346579632E-15
      0.00000000000000E+00   0.00000000000000E+00   0.00000000000000E+00   3.98619139906984E-08  -1.53751570468959E-19
     -2.89363851520146E-06  -2.85377660121092E-06  -3.17731059839565E-15   0.00000000000000E+00   0.00000000000000E+00
      0.00000000000000E+00   7.16158653672615E-09  -1.53729571291549E-19  -4.98033554121888E-07  -4.90871967585316E-07
     -3.17794990634545E-15   0.00000000000000E+00   0.00000000000000E+00   0.00000000000000E+00   2.97104764695195E-09
     -1.53725884667995E-19  -2.10646591334287E-07  -2.07675543687489E-07  -3.17807167743591E-15   0.00000000000000E+00
      0.00000000000000E+00   0.00000000000000E+00   1.79054973007187E-09  -1.89246084880377E-19  -1.28418625891144E-07
     -1.26628076161262E-07  -3.17818354480818E-15   0.00000000000000E+00   0.00000000000000E+00   0.00000000000000E+00
      1.34223118177563E-09  -1.53131396286952E-19  -9.50717400974115E-08  -9.37295089157890E-08  -3.17840516923295E-15
      8.00000000000000E-13
      0.00000000000000E+00   0.00000000000000E+00   0.00000000000000E+00   7.18702171342056E-10  -1.53130694214465E-19
     -6.32264229692882E-08  -6.25077207980992E-08  -3.17915198553063E-15   2.00000000000000E+02   2.00000000000000E+02
      0.00000000000000E+00  -1.06523246658809E-06   1.11402670666829E-06   1.36117597161433E-13   4.87943761978035E-08
      1.68179047519684E-14   0.00000000000000E+00   0.00000000000000E+00   0.00000000000000E+00  -1.60617653082953E-10
     -1.53722408631664E-19   4.82613346239893E-09   4.66551580916226E-09  -3.20733089885530E-15   0.00000000000000E+00
      0.00000000000000E+00   0.00000000000000E+00  -6.48574499392378E-09  -1.63102088632681E-11  -1.61157949478876E-07
     -1.67660004681663E-07   7.04863481573092E-15   0.00000000000000E+00   0.00000000000000E+00   0.00000000000000E+00
     -3.48616469798564E-08  -7.76372556134246E-20   2.73305038539439E-06   2.69818873841445E-06  -1.58988366940464E-15
      0.00000000000000E+00   0.00000000000000E+00   0.00000000000000E+00   2.52658802606618E-08  -1.53743826650361E-19
     -1.92558387534351E-06  -1.90031799508300E-06  -3.17750060772159E-15   0.00000000000000E+00   0.00000000000000E+00
      0.00000000000000E+00   4.36657444998861E-09  -1.53728289162094E-19  -3.33907003774963E-07  -3.29540429325128E-07
     -3.17798285593408E-15   0.00000000000000E+00   0.00000000000000E+00   0.00000000000000E+00   1.83151492869582E-09
     -1.53725366989271E-19  -1.43229026243014E-07  -1.41397511314472E-07  -3.17808581531687E-15   0.00000000000000E+00
      0.00000000000000E+00   0.00000000000000E+00   1.10483322536444E-09  -1.89245768882193E-19  -8.73122112413921E-08
     -8.62073780162169E-08  -3.17819216454298E-15   0.00000000000000E+00   0.00000000000000E+00   0.00000000000000E+00
      8.38613921320051E-10  -1.53131161071456E-19  -6.48562050706056E-08  -6.40175911494386E-08  -3.17841157039322E-15
      9.00000000000000E-13
      0.00000000000000E+00   0.00000000000000E+00   0.00000000000000E+00   4.85876151220511E-10  -1.53130551251299E-19
     -4.55602565227772E-08  -4.50743803717098E-08  -3.17915649260353E-15   2.00000000000000E+02   2.00000000000000E+02
      0.00000000000000E+00  -8.96786927277292E-07   9.43844807611677E-07   1.35224600708753E-13   4.70580155589854E-08
      1.68179094560456E-14   0.00000000000000E+00   0.00000000000000E+00   0.00000000000000E+00  -8.83255995045358E-11
     -1.53722442358764E-19   2.89419639452766E-10   2.01094039794508E-10  -3.20733087763423E-15   0.00000000000000E+00
      0.00000000000000E+00   0.00000000000000E+00  -6.03468647434053E-09  -1.63202470065067E-11  -1.07538624086587E-07
     -1.13589630807934E-07   7.04862344906854E-15   0.00000000000000E+00   0.00000000000000E+00   0.00000000000000E+00
     -2.22054400597528E-08  -7.76435580213199E-20   1.85744299454863E-06   1.83523755448880E-06  -1.58970016862054E-15
      0.00000000000000E+00   0.00000000000000E+00   0.00000000000000E+00   1.61405136731018E-08  -1.53738903822953E-19
     -1.30706172781638E-06  -1.29092121414343E-06  -3.17762967697874E-15   0.00000000000000E+00   0.00000000000000E+00
      0.00000000000000E+00   2.74606122175438E-09  -1.53727484507480E-19  -2.30781732071712E-07  -2.28035670850111E-07
     -3.17800565497732E-15   0.00000000000000E+00   0.00000000000000E+00   0.00000000000000E+00   1.16446115074726E-09
     -1.53725035966239E-19  -1.00400880193766E-07  -9.92364190431727E-08  -3.17809573705878E-15   0.00000000000000E+00
      0.00000000000000E+00   0.00000000000000E+00   7.00474027203728E-10  -1.89245567506449E-19  -6.12732352786247E-08
     -6.05727612516102E-08  -3.17819822079907E-15   0.00000000000000E+00   0.00000000000000E+00   0.00000000000000E+00
      5.34767087663331E-10  -1.53131009080463E-19  -4.56013548030160E-08  -4.50665877155058E-08  -3.17841607644184E-15
      1.00000000000000E-12
      0.00000000000000E+00   0.00000000000000E+00   0.00000000000000E+00   3.31090729146879E-10  -1.53130451264833E-19
     -3.34827353514254E-08  -3.31516446224316E-08  -3.17915980739545E-15   2.00000000000000E+02   2.00000000000000E+02
      0.00000000000000E+00  -7.71905651910398E-07   8.16814071700243E-07   1.34426188694074E-13   4.49085542160340E-08
      1.68179139451765E-14   0.00000000000000E+00   0.00000000000000E+00   0.00000000000000E+00  -4.58485181248441E-11
     -1.53722457156934E-19  -2.19587746386868E-09  -2.24172598214725E-09  -3.20733110067937E-15   0.00000000000000E+00
      0.00000000000000E+00   0.00000000000000E+00  -5.51171447419087E-09  -1.63295670110244E-11  -7.36301272107965E-08
     -7.91581712519984E-08   7.04861552558958E-15   0.00000000000000E+00   0.00000000000000E+00   0.00000000000000E+00
     -1.43314015936218E-08  -7.76473727499508E-20   1.29260064080895E-06   1.27826923921525E-06  -1.58957236509200E-15
      0.00000000000000E+00   0.00000000000000E+00   0.00000000000000E+00   1.04135945679451E-08  -1.53735747192550E-19
     -9.08003804382099E-07  -8.97590209814308E-07  -3.17771941286500E-15   0.00000000000000E+00   0.00000000000000E+00
      0.00000000000000E+00   1.77103355256871E-09  -1.53726964654686E-19  -1.64308109118312E-07  -1.62537075565897E-07
     -3.17802190411062E-15   0.00000000000000E+00   0.00000000000000E+00   0.00000000000000E+00   7.57869421442199E-10
     -1.53724818101685E-19  -7.25326085099974E-08  -7.17747390887089E-08  -3.17810291261091E-15   0.00000000000000E+00
      0.00000000000000E+00   0.00000000000000E+00   4.53709022634042E-10  -1.89245435452412E-19  -4.44153957346928E-08
     -4.39616867122480E-08  -3.17820261593528E-15   0.00000000000000E+00   0.00000000000000E+00   0.00000000000000E+00
      3.47001075409921E-10  -1.53130908226542E-19  -3.31095414915504E-08  -3.27625404162937E-08  -3.17841935207750E-15
      1.10000000000000E-12
      0.00000000000000E+00   0.00000000000000E+00   0.00000000000000E+00   2.27389377004228E-10  -1.53130380714675E-19
     -2.51651819025492E-08  -2.49377925256981E-08  -3.17916230079663E-15   2.00000000000000E+02   2.00000000000000E+02
      0.00000000000000E+00  -6.76279964172043E-07   7.18992476885263E-07   1.33701321391100E-13   4.27126464145407E-08
      1.68179182147168E-14   0.00000000000000E+00   0.00000000000000E+00   0.00000000000000E+00  -2.16852074319794E-11
     -1.53722461172919E-19  -3.49295980875608E-09  -3.51464501634179E-09  -3.20733145100343E-15   0.00000000000000E+00
      0.00000000000000E+00   0.00000000000000E+00  -4.99099388233021E-09  -1.63382306123081E-11  -5.18834525943585E-08
     -5.68907847073010E-08   7.04860982895083E-15   0.00000000000000E+00   0.00000000000000E+00   0.00000000000000E+00
     -9.37721619895072E-09  -7.76496452629970E-20   9.23163723950981E-07   9.13786507751953E-07  -1.58948101021679E-15
      0.00000000000000E+00   0.00000000000000E+00   0.00000000000000E+00   6.79927993109467E-09  -1.53733701751551E-19
     -6.47477781619774E-07  -6.40678501688833E-07  -3.17778345738970E-15   0.00000000000000E+00   0.00000000000000E+00
      0.00000000000000E+00   1.16733298714872E-09  -1.53726622051722E-19  -1.20504464624410E-07  -1.19337131637415E-07
     -3.17803383321196E-15   0.00000000000000E+00   0.00000000000000E+00   0.00000000000000E+00   5.03166832819658E-10
     -1.53724671330698E-19  -5.40265883558884E-08  -5.35234215232224E-08  -3.17810826301491E-15   0.00000000000000E+00
      0.00000000000000E+00   0.00000000000000E+00   2.99682804374761E-10  -1.89245346887188E-19  -3.32837574561410E-08
     -3.29840746519555E-08  -3.17820591330099E-15   0.00000000000000E+00   0.00000000000000E+00   0.00000000000000E+00
      2.29044581797168E-10  -1.53130839910208E-19  -2.48618470222057E-08  -2.46328024405617E-08  -3.17842181473321E-15
      1.20000000000000E-12
      0.00000000000000E+00   0.00000000000000E+00   0.00000000000000E+00   1.57591793218855E-10  -1.53130330393283E-19
     -1.93868979733948E-08  -1.92293061803291E-08  -3.17916422334496E-15   2.00000000000000E+02   2.00000000000000E+02
      0.00000000000000E+00  -6.01080059675985E-07   6.41655760972853E-07   1.33035506572726E-13   4.05758343323741E-08
      1.68179222705758E-14   0.00000000000000E+00   0.00000000000000E+00   0.00000000000000E+00  -8.22730111052812E-12
     -1.53722459425129E-19  -4.11168993620980E-09  -4.11991723747405E-09  -3.20733186184367E-15   0.00000000000000E+00
      0.00000000000000E+00   0.00000000000000E+00  -4.50698011844112E-09  -1.63463100172639E-11  -3.77121436110468E-08
     -4.22354700395052E-08   7.04860559798795E-15   0.00000000000000E+00   0.00000000000000E+00   0.00000000000000E+00
     -6.22776703870062E-09  -7.76509545983677E-20   6.77892914175396E-07   6.71665147136618E-07  -1.58941386782724E-15
      0.00000000000000E+00   0.00000000000000E+00   0.00000000000000E+00   4.50215678029852E-09  -1.53732359266009E-19
     -4.75000050230500E-07  -4.70497893450355E-07  -3.17783048371688E-15   0.00000000000000E+00   0.00000000000000E+00
      0.00000000000000E+00   7.85105951846665E-10  -1.53726391526179E-19  -9.10448632523545E-08  -9.02597573006616E-08
     -3.17804285454717E-15   0.00000000000000E+00   0.00000000000000E+00   0.00000000000000E+00   3.40476079235932E-10
     -1.53724571043641E-19  -4.14980265060493E-08  -4.11575504269671E-08  -3.17811237681919E-15   0.00000000000000E+00
      0.00000000000000E+00   0.00000000000000E+00   2.01892513489070E-10  -1.89245286066983E-19  -2.57845208794884E-08
     -2.55826283661885E-08  -3.17820847051488E-15   0.00000000000000E+00   0.00000000000000E+00   0.00000000000000E+00
      1.54039296252119E-10  -1.53130792572718E-19  -1.93124976870030E-08  -1.91584583909040E-08  -3.17842372994978E-15
      1.30000000000000E-12
      0.00000000000000E+00   0.00000000000000E+00   0.00000000000000E+00   1.10463082487435E-10  -1.53130294012912E-19
     -1.53286264718749E-08  -1.52181633895406E-08  -3.17916574477577E-15   2.00000000000000E+02   2.00000000000000E+02
      0.00000000000000E+00  -5.40574112166239E-07   5.79098502181875E-07   1.32417911354117E-13   3.85245224335474E-08
      1.68179261213037E-14   0.00000000000000E+00   0.00000000000000E+00   0.00000000000000E+00  -8.98720315571571E-13
     -1.53722454752457E-19  -4.34790332602447E-09  -4.34880204649377E-09  -3.20733229556276E-15   0.00000000000000E+00
      0.00000000000000E+00   0.00000000000000E+00  -4.07262831282926E-09  -1.63538760971653E-11  -2.83073970467228E-08
     -3.23963792356492E-08   7.04860235110788E-15   0.00000000000000E+00   0.00000000000000E+00   0.00000000000000E+00
     -4.20509559125907E-09  -7.76516590025019E-20   5.12339100250128E-07   5.08134004658791E-07  -1.58936307887911E-15
      0.00000000000000E+00   0.00000000000000E+00   0.00000000000000E+00   3.02999415459749E-09  -1.53731466213111E-19
     -3.58946802366535E-07  -3.55916808212091E-07  -3.17786605183659E-15   0.00000000000000E+00   0.00000000000000E+00
      0.00000000000000E+00   5.38679535956362E-10  -1.53726232338318E-19  -7.08300341333553E-08  -7.02913545975527E-08
     -3.17804987901976E-15   0.00000000000000E+00   0.00000000000000E+00   0.00000000000000E+00   2.34985779082250E-10
     -1.53724500721585E-19  -3.28456472576889E-08  -3.26106614787604E-08  -3.17811563592467E-15   0.00000000000000E+00
      0.00000000000000E+00   0.00000000000000E+00   1.38973869104311E-10  -1.89245243225930E-19  -2.06222573116102E-08
     -2.04832834426951E-08  -3.17821051778860E-15   0.00000000000000E+00   0.00000000000000E+00   0.00000000000000E+00
      1.05751765872304E-10  -1.53130758948740E-19  -1.54988264879241E-08  -1.53930747222050E-08  -3.17842526862425E-15
      1.40000000000000E-12