DF-ISE text

Info {
  version   = 1.0
  type      = xyplot
  datasets  = [
    "time"
    "PIX7 OuterVoltage" "PIX7 InnerVoltage" "PIX7 QuasiFermiPotential" "PIX7 DisplacementCurrent" "PIX7 eCurrent"
    "PIX7 hCurrent" "PIX7 TotalCurrent" "PIX7 Charge" "BACK OuterVoltage" "BACK InnerVoltage"
    "BACK QuasiFermiPotential" "BACK DisplacementCurrent" "BACK eCurrent" "BACK hCurrent" "BACK TotalCurrent"
    "BACK Charge" "PIX8 OuterVoltage" "PIX8 InnerVoltage" "PIX8 QuasiFermiPotential" "PIX8 DisplacementCurrent"
    "PIX8 eCurrent" "PIX8 hCurrent" "PIX8 TotalCurrent" "PIX8 Charge" "PIX9 OuterVoltage"
    "PIX9 InnerVoltage" "PIX9 QuasiFermiPotential" "PIX9 DisplacementCurrent" "PIX9 eCurrent" "PIX9 hCurrent"
    "PIX9 TotalCurrent" "PIX9 Charge" "PIX1 OuterVoltage" "PIX1 InnerVoltage" "PIX1 QuasiFermiPotential"
    "PIX1 DisplacementCurrent" "PIX1 eCurrent" "PIX1 hCurrent" "PIX1 TotalCurrent" "PIX1 Charge"
    "PIX2 OuterVoltage" "PIX2 InnerVoltage" "PIX2 QuasiFermiPotential" "PIX2 DisplacementCurrent" "PIX2 eCurrent"
    "PIX2 hCurrent" "PIX2 TotalCurrent" "PIX2 Charge" "PIX3 OuterVoltage" "PIX3 InnerVoltage"
    "PIX3 QuasiFermiPotential" "PIX3 DisplacementCurrent" "PIX3 eCurrent" "PIX3 hCurrent" "PIX3 TotalCurrent"
    "PIX3 Charge" "PIX4 OuterVoltage" "PIX4 InnerVoltage" "PIX4 QuasiFermiPotential" "PIX4 DisplacementCurrent"
    "PIX4 eCurrent" "PIX4 hCurrent" "PIX4 TotalCurrent" "PIX4 Charge" "PIX5 OuterVoltage"
    "PIX5 InnerVoltage" "PIX5 QuasiFermiPotential" "PIX5 DisplacementCurrent" "PIX5 eCurrent" "PIX5 hCurrent"
    "PIX5 TotalCurrent" "PIX5 Charge" "PIX6 OuterVoltage" "PIX6 InnerVoltage" "PIX6 QuasiFermiPotential"
    "PIX6 DisplacementCurrent" "PIX6 eCurrent" "PIX6 hCurrent" "PIX6 TotalCurrent" "PIX6 Charge" ]
  functions = [
    Time
    OuterVoltage InnerVoltage QuasiFermiPotential DisplacementCurrent eCurrent
    hCurrent TotalCurrent Charge OuterVoltage InnerVoltage
    QuasiFermiPotential DisplacementCurrent eCurrent hCurrent TotalCurrent
    Charge OuterVoltage InnerVoltage QuasiFermiPotential DisplacementCurrent
    eCurrent hCurrent TotalCurrent Charge OuterVoltage
    InnerVoltage QuasiFermiPotential DisplacementCurrent eCurrent hCurrent
    TotalCurrent Charge OuterVoltage InnerVoltage QuasiFermiPotential
    DisplacementCurrent eCurrent hCurrent TotalCurrent Charge
    OuterVoltage InnerVoltage QuasiFermiPotential DisplacementCurrent eCurrent
    hCurrent TotalCurrent Charge OuterVoltage InnerVoltage
    QuasiFermiPotential DisplacementCurrent eCurrent hCurrent TotalCurrent
    Charge OuterVoltage InnerVoltage QuasiFermiPotential DisplacementCurrent
    eCurrent hCurrent TotalCurrent Charge OuterVoltage
    InnerVoltage QuasiFermiPotential DisplacementCurrent eCurrent hCurrent
    TotalCurrent Charge OuterVoltage InnerVoltage QuasiFermiPotential
    DisplacementCurrent eCurrent hCurrent TotalCurrent Charge ]
}

Data {
      0.00000000000000E+00
      0.00000000000000E+00   0.00000000000000E+00   0.00000000000000E+00  -7.41639767642022E-30  -1.53131048027052E-19
     -4.31859537534063E-15  -4.31874850638866E-15  -3.17924148555976E-15   2.00000000000000E+02   2.00000000000000E+02
      0.00000000000000E+00   4.75915183161003E-25   1.72345153685824E-11   9.18008895593748E-15   1.72436954575388E-11
      1.68177494282920E-14   0.00000000000000E+00   0.00000000000000E+00   0.00000000000000E+00  -1.07125744214959E-29
     -1.53722664892220E-19  -4.81527078308231E-15  -4.81542450574721E-15  -3.20780957579879E-15   0.00000000000000E+00
      0.00000000000000E+00   0.00000000000000E+00  -9.45079796348091E-26  -7.27436298500582E-11   5.55331295296479E-11
     -1.72105003204104E-11   7.07088673081416E-15   0.00000000000000E+00   0.00000000000000E+00   0.00000000000000E+00
      2.88415465194120E-30  -7.62087392901926E-20  -2.46869454736120E-15  -2.46877075610049E-15  -1.61914747595537E-15
      0.00000000000000E+00   0.00000000000000E+00   0.00000000000000E+00  -1.64808837253783E-30  -1.53788914581493E-19
     -4.32533135810606E-15  -4.32548514702064E-15  -3.17225982985196E-15   0.00000000000000E+00   0.00000000000000E+00
      0.00000000000000E+00  -1.07125744214959E-29  -1.53740597260605E-19  -4.31529881004926E-15  -4.31545255064653E-15
     -3.17675365052508E-15   0.00000000000000E+00   0.00000000000000E+00   0.00000000000000E+00  -8.24044186268913E-30
     -1.53731158912797E-19  -4.31641513268356E-15  -4.31656886384248E-15  -3.17760403665464E-15   0.00000000000000E+00
      0.00000000000000E+00   0.00000000000000E+00  -1.31847069803026E-29  -1.89248307215442E-19  -4.31692432986247E-15
     -4.31711357816970E-15  -3.17799024863341E-15   0.00000000000000E+00   0.00000000000000E+00   0.00000000000000E+00
     -1.23606627940337E-29  -1.53132060281153E-19  -4.31742008837359E-15  -4.31757322043388E-15  -3.17836422924232E-15
      1.00000000000000E-13
      0.00000000000000E+00   0.00000000000000E+00   0.00000000000000E+00   4.02007034905295E-07  -1.53101336525969E-19
      3.31235489318427E-06   3.71436192808941E-06  -3.17887004939525E-15   2.00000000000000E+02   2.00000000000000E+02
      0.00000000000000E+00  -1.97539703024823E-04   2.06324351997825E-04   1.58224287306555E-13   8.78464913122587E-06
      1.68186278914807E-14   0.00000000000000E+00   0.00000000000000E+00   0.00000000000000E+00   2.34725706039321E-07
     -1.53679909338096E-19   4.97074375343184E-06   5.20546945947100E-06  -3.20728902856550E-15   0.00000000000000E+00
      0.00000000000000E+00   0.00000000000000E+00  -2.11286209040349E-04  -1.61813523889957E-11  -3.99240004205899E-06
     -2.15278625263760E-04   7.04935887301156E-15   0.00000000000000E+00   0.00000000000000E+00   0.00000000000000E+00
     -3.14004866201802E-05  -7.58858122074383E-20   2.12109157168783E-04   1.80708670548603E-04  -1.60107661690982E-15
      0.00000000000000E+00   0.00000000000000E+00   0.00000000000000E+00   1.37267751967402E-05  -1.53743105902124E-19
     -2.59058724747737E-06   1.11361879492627E-05  -3.17114620800261E-15   0.00000000000000E+00   0.00000000000000E+00
      0.00000000000000E+00   2.98602646833898E-06  -1.53727414947379E-19  -6.93041148526864E-07   2.29298531981196E-06
     -3.17652435093435E-15   0.00000000000000E+00   0.00000000000000E+00   0.00000000000000E+00   1.33239302447584E-06
     -1.53711311905096E-19   1.23699411416391E-06   2.56938713863960E-06  -3.17734709752077E-15   0.00000000000000E+00
      0.00000000000000E+00   0.00000000000000E+00   7.80915777609327E-07  -1.89224417998285E-19   2.25105129431144E-06
      3.03196707192058E-06  -3.17768705176793E-15   0.00000000000000E+00   0.00000000000000E+00   0.00000000000000E+00
      5.27998821021404E-07  -1.53107023924345E-19   2.65067904778734E-06   3.17867786880859E-06  -3.17804636139601E-15
      2.00000000000000E-13
      0.00000000000000E+00   0.00000000000000E+00   0.00000000000000E+00  -9.52602300429227E-08  -1.53134274737185E-19
     -5.48859929410105E-07  -6.44120159453181E-07  -3.17893446134033E-15   2.00000000000000E+02   2.00000000000000E+02
      0.00000000000000E+00  -1.92641145339193E-05   1.85906486597920E-05   1.48539351273404E-13  -6.73465725587968E-07
      1.68185605431837E-14   0.00000000000000E+00   0.00000000000000E+00   0.00000000000000E+00  -1.17222723454804E-07
     -1.53719393406375E-19   3.16519952355032E-07   1.99297228900075E-07  -3.20726909826728E-15   0.00000000000000E+00
      0.00000000000000E+00   0.00000000000000E+00  -5.97847109721571E-08  -1.62252054445156E-11  -2.67873994195963E-06
     -2.73854087813723E-06   7.04908501911821E-15   0.00000000000000E+00   0.00000000000000E+00   0.00000000000000E+00
     -4.34456389439648E-06  -7.72760155174193E-20   4.71278336627244E-05   4.27832697683279E-05  -1.59679830328231E-15
      0.00000000000000E+00   0.00000000000000E+00   0.00000000000000E+00  -5.96123615002395E-07  -1.53941752893865E-19
     -2.62423170464427E-05  -2.68384406614452E-05  -3.17383004182835E-15   0.00000000000000E+00   0.00000000000000E+00
      0.00000000000000E+00  -1.42506728208123E-07  -1.53778519478559E-19  -6.61962370021369E-06  -6.76213042842197E-06
     -3.17720056159845E-15   0.00000000000000E+00   0.00000000000000E+00   0.00000000000000E+00  -9.31652261522243E-08
     -1.53744968880905E-19  -2.64865748191337E-06  -2.74182270806575E-06  -3.17762127884518E-15   0.00000000000000E+00
      0.00000000000000E+00   0.00000000000000E+00  -8.97399620243604E-08  -1.89256718135705E-19  -1.49846590368616E-06
     -1.58820586571071E-06  -3.17784587191320E-15   0.00000000000000E+00   0.00000000000000E+00   0.00000000000000E+00
     -8.68587370665542E-08  -1.53137577712545E-19  -9.08981833283359E-07  -9.95840570350066E-07  -3.17814594522690E-15
      3.00000000000000E-13
      0.00000000000000E+00   0.00000000000000E+00   0.00000000000000E+00   4.90496701141085E-09  -1.53133083265040E-19
     -3.79657643756398E-07  -3.74752676745140E-07  -3.17897193646059E-15   2.00000000000000E+02   2.00000000000000E+02
      0.00000000000000E+00  -6.13881073875504E-06   6.05155539121140E-06   1.44264979824626E-13  -8.72552032786678E-08
      1.68185518159391E-14   0.00000000000000E+00   0.00000000000000E+00   0.00000000000000E+00  -2.91134509507248E-09
     -1.53720831977352E-19   1.70019503405437E-07   1.67108158310211E-07  -3.20725238669815E-15   0.00000000000000E+00
      0.00000000000000E+00   0.00000000000000E+00  -5.24951721411727E-09  -1.62393251470007E-11  -1.61262006870104E-06
     -1.61788582524031E-06   7.04892322747070E-15   0.00000000000000E+00   0.00000000000000E+00   0.00000000000000E+00
     -5.42016819881539E-07  -7.74543645220121E-20   2.55117871452667E-05   2.49697703253851E-05  -1.59430134280192E-15
      0.00000000000000E+00   0.00000000000000E+00   0.00000000000000E+00   2.43943133443241E-07  -1.53866532019231E-19
     -1.70864658724259E-05  -1.68425227389828E-05  -3.17551427910054E-15   0.00000000000000E+00   0.00000000000000E+00
      0.00000000000000E+00   8.10956770871151E-08  -1.53754086614389E-19  -3.59166532905885E-06  -3.51056965197188E-06
     -3.17755161536563E-15   0.00000000000000E+00   0.00000000000000E+00   0.00000000000000E+00   3.38845212510042E-08
     -1.53735125504820E-19  -1.40364552268052E-06  -1.36976100142967E-06  -3.17775825366956E-15   0.00000000000000E+00
      0.00000000000000E+00   0.00000000000000E+00   1.82152878562957E-08  -1.89251416949965E-19  -8.19315060507956E-07
     -8.01099772651849E-07  -3.17792598126501E-15   0.00000000000000E+00   0.00000000000000E+00   0.00000000000000E+00
      1.00918628988596E-08  -1.53134808919633E-19  -5.43123476275009E-07  -5.33031613376303E-07  -3.17819924804836E-15
      4.00000000000000E-13
      0.00000000000000E+00   0.00000000000000E+00   0.00000000000000E+00   3.99847899197060E-09  -1.53132017165635E-19
     -2.36217653026331E-07  -2.32219174034513E-07  -3.17899515817524E-15   2.00000000000000E+02   2.00000000000000E+02
      0.00000000000000E+00  -3.34542488349445E-06   3.44596014340240E-06   1.41663762153413E-13   1.00535401571705E-07
      1.68185618677550E-14   0.00000000000000E+00   0.00000000000000E+00   0.00000000000000E+00  -8.92642876827029E-10
     -1.53721367546483E-19   1.20183333332149E-07   1.19290690455168E-07  -3.20724045676166E-15   0.00000000000000E+00
      0.00000000000000E+00   0.00000000000000E+00  -3.65337002890387E-09  -1.62510835457169E-11  -9.77373710088680E-07
     -9.81043331201130E-07   7.04882511793088E-15   0.00000000000000E+00   0.00000000000000E+00   0.00000000000000E+00
     -2.51584035985788E-07  -7.75362240883415E-20   1.54766878325458E-05   1.52251037965599E-05  -1.59277885102551E-15
      0.00000000000000E+00   0.00000000000000E+00   0.00000000000000E+00   1.62709822722686E-07  -1.53816124735264E-19
     -1.09008260061106E-05  -1.07381161833880E-05  -3.17658807261263E-15   0.00000000000000E+00   0.00000000000000E+00
      0.00000000000000E+00   4.14125657917921E-08  -1.53741635016255E-19  -2.03129043954859E-06  -1.98987787375695E-06
     -3.17775059943972E-15   0.00000000000000E+00   0.00000000000000E+00   0.00000000000000E+00   1.69574628070570E-08
     -1.53730221217103E-19  -7.74793955185227E-07  -7.57836492378323E-07  -3.17783403583399E-15   0.00000000000000E+00
      0.00000000000000E+00   0.00000000000000E+00   9.76875388656534E-09  -1.89248572243283E-19  -4.52417670676087E-07
     -4.42648916789711E-07  -3.17797024541224E-15   0.00000000000000E+00   0.00000000000000E+00   0.00000000000000E+00
      6.39019776858424E-09  -1.53133030111447E-19  -3.09578114829327E-07  -3.03187917060896E-07  -3.17822956642468E-15
      5.00000000000000E-13
      0.00000000000000E+00   0.00000000000000E+00   0.00000000000000E+00   2.42978769581840E-09  -1.53131366711291E-19
     -1.49276016575311E-07  -1.46846228879646E-07  -3.17900984255668E-15   2.00000000000000E+02   2.00000000000000E+02
      0.00000000000000E+00  -2.23813147417983E-06   2.39108733902005E-06   1.39805985075064E-13   1.52956004646202E-07
      1.68185771616308E-14   0.00000000000000E+00   0.00000000000000E+00   0.00000000000000E+00  -7.57687417205364E-10
     -1.53721743274189E-19   8.25802011131307E-08   8.18225136957716E-08  -3.20723227356791E-15   0.00000000000000E+00
      0.00000000000000E+00   0.00000000000000E+00  -5.46858176873662E-09  -1.62630833959087E-11  -5.99839965680004E-07
     -6.05324810532137E-07   7.04876457890833E-15   0.00000000000000E+00   0.00000000000000E+00   0.00000000000000E+00
     -1.46776322049362E-07  -7.75831877547854E-20   9.65318646326084E-06   9.50641014121140E-06  -1.59182822999914E-15
      0.00000000000000E+00   0.00000000000000E+00   0.00000000000000E+00   1.01627320013654E-07  -1.53784683634057E-19
     -7.01983633503194E-06  -6.91820901501844E-06  -3.17727987339226E-15   0.00000000000000E+00   0.00000000000000E+00
      0.00000000000000E+00   2.16160162265902E-08  -1.53735193348786E-19  -1.21608340968161E-06  -1.19446739345517E-06
     -3.17787004213663E-15   0.00000000000000E+00   0.00000000000000E+00   0.00000000000000E+00   8.68601869980067E-09
     -1.53727746605422E-19  -4.53350687854049E-07  -4.44664669154402E-07  -3.17787850068161E-15   0.00000000000000E+00
      0.00000000000000E+00   0.00000000000000E+00   5.13115284391015E-09  -1.89247100260201E-19  -2.60434907464375E-07
     -2.55303754620655E-07  -3.17799577496633E-15   0.00000000000000E+00   0.00000000000000E+00   0.00000000000000E+00
      3.57461328304272E-09  -1.53132048560340E-19  -1.79947401110267E-07  -1.76372787827377E-07  -3.17824720323858E-15
      6.00000000000000E-13
      0.00000000000000E+00   0.00000000000000E+00   0.00000000000000E+00   1.56001129487265E-09  -1.53130940415038E-19
     -9.33477634548798E-08  -9.17877521601603E-08  -3.17901902106374E-15   2.00000000000000E+02   2.00000000000000E+02
      0.00000000000000E+00  -1.65784727852962E-06   1.82400379921166E-06   1.38356435098061E-13   1.66156659038477E-07
      1.68185937755723E-14   0.00000000000000E+00   0.00000000000000E+00   0.00000000000000E+00  -5.13052524541293E-10
     -1.53721978102385E-19   5.78952390111606E-08   5.73821864864656E-08  -3.20722653435638E-15   0.00000000000000E+00
      0.00000000000000E+00   0.00000000000000E+00  -6.46442839774745E-09  -1.62749366027968E-11  -3.72387051407682E-07
     -3.78867754742032E-07   7.04872668479768E-15   0.00000000000000E+00   0.00000000000000E+00   0.00000000000000E+00
     -8.91262964517246E-08  -7.76111745717184E-20   6.12732983971162E-06   6.03820354325982E-06  -1.59122443061652E-15
      0.00000000000000E+00   0.00000000000000E+00   0.00000000000000E+00   6.36227996622858E-08  -1.53765051199320E-19
     -4.58523375450125E-06  -4.52161095483911E-06  -3.17773201305085E-15   0.00000000000000E+00   0.00000000000000E+00
      0.00000000000000E+00   1.20518991092980E-08  -1.53731628690906E-19  -7.62028327238680E-07  -7.49976428129535E-07
     -3.17794503552228E-15   0.00000000000000E+00   0.00000000000000E+00   0.00000000000000E+00   4.85510984314824E-09
     -1.53726375730746E-19  -2.74228507282134E-07  -2.69373397439139E-07  -3.17790543631403E-15   0.00000000000000E+00
      0.00000000000000E+00   0.00000000000000E+00   2.92083218168018E-09  -1.89246267754373E-19  -1.51482351956482E-07
     -1.48561519774991E-07  -3.17801063024679E-15   0.00000000000000E+00   0.00000000000000E+00   0.00000000000000E+00
      2.11303650468296E-09  -1.53131468290359E-19  -1.03677618278669E-07  -1.01564581774139E-07  -3.17825735919945E-15
      7.00000000000000E-13
      0.00000000000000E+00   0.00000000000000E+00   0.00000000000000E+00   1.03764403773071E-09  -1.53130649259228E-19
     -5.59858557565685E-08  -5.49482117189909E-08  -3.17902451559845E-15   2.00000000000000E+02   2.00000000000000E+02
      0.00000000000000E+00  -1.30356047841999E-06   1.47313093457233E-06   1.37162281711164E-13   1.69570593314620E-07
      1.68186107309072E-14   0.00000000000000E+00   0.00000000000000E+00   0.00000000000000E+00  -3.09805278672235E-10
     -1.53722113108831E-19   4.29900997613698E-08   4.26802944825439E-08  -3.20722226529897E-15   0.00000000000000E+00
      0.00000000000000E+00   0.00000000000000E+00  -6.65826871282172E-09  -1.62863186064318E-11  -2.33545498608955E-07
     -2.40220053640384E-07   7.04870265501646E-15   0.00000000000000E+00   0.00000000000000E+00   0.00000000000000E+00
     -5.52406989666920E-08  -7.76281148067021E-20   3.94558798735047E-06   3.89034728838370E-06  -1.59083541759650E-15
      0.00000000000000E+00   0.00000000000000E+00   0.00000000000000E+00   3.99866680628672E-08  -1.53752754031824E-19
     -3.05363495522688E-06  -3.01364828716416E-06  -3.17803335557501E-15   0.00000000000000E+00   0.00000000000000E+00
      0.00000000000000E+00   7.06738406155718E-09  -1.53729549610869E-19  -4.96143913140565E-07  -4.89076529079161E-07
     -3.17799393877445E-15   0.00000000000000E+00   0.00000000000000E+00   0.00000000000000E+00   2.89057504979099E-09
     -1.53725561348570E-19  -1.67828378317420E-07  -1.64937803267782E-07  -3.17792192832827E-15   0.00000000000000E+00
      0.00000000000000E+00   0.00000000000000E+00   1.75878873962382E-09  -1.89245766105516E-19  -8.59950999266913E-08
     -8.42363111872567E-08  -3.17801905297328E-15   0.00000000000000E+00   0.00000000000000E+00   0.00000000000000E+00
      1.30064694609536E-09  -1.53131108464717E-19  -5.68316270214101E-08  -5.55309800754679E-08  -3.17826291177879E-15
      8.00000000000000E-13
      0.00000000000000E+00   0.00000000000000E+00   0.00000000000000E+00   7.02822687883566E-10  -1.53130447088352E-19
     -3.05563841429250E-08  -2.98535614551946E-08  -3.17902750065558E-15   2.00000000000000E+02   2.00000000000000E+02
      0.00000000000000E+00  -1.06632550868022E-06   1.23774759561298E-06   1.36142068166583E-13   1.71422223074821E-07
      1.68186278714051E-14   0.00000000000000E+00   0.00000000000000E+00   0.00000000000000E+00  -1.74708961162553E-10
     -1.53722184665796E-19   3.44326093991163E-08   3.42579004378001E-08  -3.20721883845571E-15   0.00000000000000E+00
      0.00000000000000E+00   0.00000000000000E+00  -6.39810419887346E-09  -1.62969587035006E-11  -1.47757116833226E-07
     -1.54171517990803E-07   7.04868722987607E-15   0.00000000000000E+00   0.00000000000000E+00   0.00000000000000E+00
     -3.47783886695146E-08  -7.76384445876818E-20   2.57340269890697E-06   2.53862431023738E-06  -1.59058157745617E-15
      0.00000000000000E+00   0.00000000000000E+00   0.00000000000000E+00   2.52722855351948E-08  -1.53745015064742E-19
     -2.08523387287078E-06  -2.05996158733574E-06  -3.17823932884754E-15   0.00000000000000E+00   0.00000000000000E+00
      0.00000000000000E+00   4.30758688979649E-09  -1.53728286489272E-19  -3.34290071884591E-07  -3.29982484994948E-07
     -3.17802693252358E-15   0.00000000000000E+00   0.00000000000000E+00   0.00000000000000E+00   1.79710987988882E-09
     -1.53725053148276E-19  -1.01758780358611E-07  -9.99616704788761E-08  -3.17793192268916E-15   0.00000000000000E+00
      0.00000000000000E+00   0.00000000000000E+00   1.09962776323949E-09  -1.89245450119246E-19  -4.50885459231326E-08
     -4.39889181600823E-08  -3.17802345093825E-15   0.00000000000000E+00   0.00000000000000E+00   0.00000000000000E+00
      8.23016724024945E-10  -1.53130876761104E-19  -2.72077100524336E-08  -2.63846933285618E-08  -3.17826554971525E-15
      9.00000000000000E-13
      0.00000000000000E+00   0.00000000000000E+00   0.00000000000000E+00   4.80906496904189E-10  -1.53130304818868E-19
     -1.30774904771176E-08  -1.25965839803665E-08  -3.17902876000640E-15   2.00000000000000E+02   2.00000000000000E+02
      0.00000000000000E+00  -8.97681818013916E-07   1.07121796779247E-06   1.35247470852215E-13   1.73536285026029E-07
      1.68186452233093E-14   0.00000000000000E+00   0.00000000000000E+00   0.00000000000000E+00  -9.28418561687704E-11
     -1.53722219671208E-19   2.97166008373465E-08   2.96237589810240E-08  -3.20721587500770E-15   0.00000000000000E+00
      0.00000000000000E+00   0.00000000000000E+00  -5.93048463573182E-09  -1.63068423091703E-11  -9.41074032855512E-08
     -1.00054194763592E-07   7.04867721640305E-15   0.00000000000000E+00   0.00000000000000E+00   0.00000000000000E+00
     -2.22010947239786E-08  -7.76447512001424E-20   1.69805997052532E-06   1.67585887580126E-06  -1.59041401434167E-15
      0.00000000000000E+00   0.00000000000000E+00   0.00000000000000E+00   1.60924039285097E-08  -1.53740112946590E-19
     -1.46851589046134E-06  -1.45242348653298E-06  -3.17838454791245E-15   0.00000000000000E+00   0.00000000000000E+00
      0.00000000000000E+00   2.70578410991683E-09  -1.53727494812379E-19  -2.32715487513227E-07  -2.30009703403464E-07
     -3.17804992892481E-15   0.00000000000000E+00   0.00000000000000E+00   0.00000000000000E+00   1.15172282317771E-09
     -1.53724725078160E-19  -5.94305466219530E-08  -5.82788237989290E-08  -3.17793774873743E-15   0.00000000000000E+00
      0.00000000000000E+00   0.00000000000000E+00   7.06119103267481E-10  -1.89245245690185E-19  -1.88292517812410E-08
     -1.81231326781628E-08  -3.17802526230953E-15   0.00000000000000E+00   0.00000000000000E+00   0.00000000000000E+00
      5.31689143384010E-10  -1.53130724652989E-19  -8.06468381210226E-09  -7.53299466887138E-09  -3.17826630247231E-15
      1.00000000000000E-12
      0.00000000000000E+00   0.00000000000000E+00   0.00000000000000E+00   3.31204383738751E-10  -1.53130204129195E-19
     -9.92427770839045E-10  -6.61223387253424E-10  -3.17902882581530E-15   2.00000000000000E+02   2.00000000000000E+02
      0.00000000000000E+00  -7.72646090440810E-07   9.48599789986600E-07   1.34447583314875E-13   1.75953833993373E-07
      1.68186628169683E-14   0.00000000000000E+00   0.00000000000000E+00   0.00000000000000E+00  -4.58709295967363E-11
     -1.53722233070140E-19   2.72281405553385E-08   2.71822696255880E-08  -3.20721315569387E-15   0.00000000000000E+00
      0.00000000000000E+00   0.00000000000000E+00  -5.39626685389256E-09  -1.63159797229446E-11  -6.01304949561891E-08
     -6.55430777898046E-08   7.04867065407304E-15   0.00000000000000E+00   0.00000000000000E+00   0.00000000000000E+00
     -1.43638582845587E-08  -7.76485813823430E-20   1.13201636124253E-06   1.11765250295789E-06  -1.59030227228163E-15
      0.00000000000000E+00   0.00000000000000E+00   0.00000000000000E+00   1.03445908694031E-08  -1.53736982179975E-19
     -1.07209189737122E-06  -1.06174730650197E-06  -3.17849069908178E-15   0.00000000000000E+00   0.00000000000000E+00
      0.00000000000000E+00   1.74161578670313E-09  -1.53726984367003E-19  -1.67373059007990E-07  -1.65631443221441E-07
     -3.17806648744927E-15   0.00000000000000E+00   0.00000000000000E+00   0.00000000000000E+00   7.54970862470411E-10
     -1.53724507185484E-19  -3.16778267388157E-08  -3.09228558764991E-08  -3.17794083916896E-15   0.00000000000000E+00
      0.00000000000000E+00   0.00000000000000E+00   4.62790122779194E-10  -1.89245109805110E-19  -1.61825940823099E-09
     -1.15546928564104E-09  -3.17802537690401E-15   0.00000000000000E+00   0.00000000000000E+00   0.00000000000000E+00
      3.49370889698893E-10  -1.53130622231609E-19   4.52339858289958E-09   4.87276947244534E-09  -3.17826581464651E-15
      1.10000000000000E-12
      0.00000000000000E+00   0.00000000000000E+00   0.00000000000000E+00   2.29028294202656E-10  -1.53130132551673E-19
      7.39086292828685E-09   7.61989122233637E-09  -3.17902806350875E-15   2.00000000000000E+02   2.00000000000000E+02
      0.00000000000000E+00  -6.76897834580731E-07   8.55213951872475E-07   1.33721527932497E-13   1.78316251013272E-07
      1.68186806468690E-14   0.00000000000000E+00   0.00000000000000E+00   0.00000000000000E+00  -2.03791685109074E-11
     -1.53722236323170E-19   2.59805209899894E-08   2.59601418213248E-08  -3.20721055858093E-15   0.00000000000000E+00
      0.00000000000000E+00   0.00000000000000E+00  -4.86819244766709E-09  -1.63244783062334E-11  -3.83191044871047E-08
     -4.32036214130781E-08   7.04866632578380E-15   0.00000000000000E+00   0.00000000000000E+00   0.00000000000000E+00
     -9.42161310439037E-09  -7.76508718570753E-20   7.60890791979235E-07   7.51469178874767E-07  -1.59022714892728E-15
      0.00000000000000E+00   0.00000000000000E+00   0.00000000000000E+00   6.72897122280277E-09  -1.53734962187119E-19
     -8.14262860812637E-07  -8.07533889589988E-07  -3.17857142871134E-15   0.00000000000000E+00   0.00000000000000E+00
      0.00000000000000E+00   1.14496017542193E-09  -1.53726648924852E-19  -1.24429891497453E-07  -1.23284931322185E-07
     -3.17807881128451E-15   0.00000000000000E+00   0.00000000000000E+00   0.00000000000000E+00   5.03741377514540E-10
     -1.53724360134184E-19  -1.31501356967599E-08  -1.26463943193991E-08  -3.17794210193979E-15   0.00000000000000E+00
      0.00000000000000E+00   0.00000000000000E+00   3.08225214907741E-10  -1.89245017811499E-19   9.84564127862427E-09
      1.01538664933428E-08  -3.17802436055756E-15   0.00000000000000E+00   0.00000000000000E+00   0.00000000000000E+00
      2.32743851502703E-10  -1.53130552132013E-19   1.29167633757735E-08   1.31495072271230E-08  -3.17826449914256E-15
      1.20000000000000E-12
      0.00000000000000E+00   0.00000000000000E+00   0.00000000000000E+00   1.58493895133300E-10  -1.53130081567504E-19
      1.32048461279257E-08   1.33633400229058E-08  -3.17902672685468E-15   2.00000000000000E+02   2.00000000000000E+02
      0.00000000000000E+00  -6.01600550274748E-07   7.81851671990284E-07   1.33054601261520E-13   1.80251254770137E-07
      1.68186986702700E-14   0.00000000000000E+00   0.00000000000000E+00   0.00000000000000E+00  -7.63573414861031E-12
     -1.53722234042238E-19   2.53841595548064E-08   2.53765238205041E-08  -3.20720801981982E-15   0.00000000000000E+00
      0.00000000000000E+00   0.00000000000000E+00  -4.38004684160264E-09  -1.63323562538978E-11  -2.41133040422317E-08
     -2.85096832400883E-08   7.04866346702590E-15   0.00000000000000E+00   0.00000000000000E+00   0.00000000000000E+00
     -6.26868454005026E-09  -7.76521972005621E-20   5.14052079882993E-07   5.07783395342865E-07  -1.59017639449384E-15
      0.00000000000000E+00   0.00000000000000E+00   0.00000000000000E+00   4.44288375321287E-09  -1.53733641048331E-19
     -6.44065033938206E-07  -6.39622150185147E-07  -3.17863536702276E-15   0.00000000000000E+00   0.00000000000000E+00
      0.00000000000000E+00   7.67808447421427E-10  -1.53726423942932E-19  -9.56358614678839E-08  -9.48680530206162E-08
     -3.17808829340271E-15   0.00000000000000E+00   0.00000000000000E+00   0.00000000000000E+00   3.40884671609019E-10
     -1.53724258392753E-19  -6.05957351265515E-10  -2.65072679810221E-10  -3.17794212656767E-15   0.00000000000000E+00
      0.00000000000000E+00   0.00000000000000E+00   2.07567721792306E-10  -1.89244954659969E-19   1.75648229667558E-08
      1.77723906883588E-08  -3.17802258235352E-15   0.00000000000000E+00   0.00000000000000E+00   0.00000000000000E+00
      1.56455860155691E-10  -1.53130503567476E-19   1.85615986928007E-08   1.87180545528032E-08  -3.17826262678095E-15
      1.30000000000000E-12
      0.00000000000000E+00   0.00000000000000E+00   0.00000000000000E+00   1.09100585409463E-10  -1.53130045340915E-19
      1.72103959159145E-08   1.73194965011709E-08  -3.17902499458324E-15   2.00000000000000E+02   2.00000000000000E+02
      0.00000000000000E+00  -5.41017573389752E-07   7.22481207825413E-07   1.32436095634150E-13   1.81463766871757E-07
      1.68187168149223E-14   0.00000000000000E+00   0.00000000000000E+00   0.00000000000000E+00  -2.37723915956549E-12
     -1.53722229564504E-19   2.50906036673124E-08   2.50882264279991E-08  -3.20720550987986E-15   0.00000000000000E+00
      0.00000000000000E+00   0.00000000000000E+00  -3.94434699573289E-09  -1.63397012573129E-11  -1.47219079396240E-08
     -1.86825946366143E-08   7.04866159114349E-15   0.00000000000000E+00   0.00000000000000E+00   0.00000000000000E+00
     -4.23246804569786E-09  -7.76529134073761E-20   3.47443314381533E-07   3.43210846335758E-07  -1.59014209763537E-15
      0.00000000000000E+00   0.00000000000000E+00   0.00000000000000E+00   2.98978145534349E-09  -1.53732762790627E-19
     -5.29561320706594E-07  -5.26571539251404E-07  -3.17868800016649E-15   0.00000000000000E+00   0.00000000000000E+00
      0.00000000000000E+00   5.25417930682647E-10  -1.53726269048433E-19  -7.59322523748145E-08  -7.54068344442856E-08
     -3.17809582937614E-15   0.00000000000000E+00   0.00000000000000E+00   0.00000000000000E+00   2.32940227650674E-10
     -1.53724188408416E-19   7.96786054074558E-09   8.20080076824253E-09  -3.17794130460009E-15   0.00000000000000E+00
      0.00000000000000E+00   0.00000000000000E+00   1.40243959978811E-10  -1.89244911018369E-19   2.27767715780390E-08
      2.29170155378286E-08  -3.17802028968335E-15   0.00000000000000E+00   0.00000000000000E+00   0.00000000000000E+00
      1.05241736926011E-10  -1.53130469772061E-19   2.23555740785080E-08   2.24608158152809E-08  -3.17826038014126E-15
      1.40000000000000E-12