DF-ISE text

Info {
  version   = 1.0
  type      = xyplot
  datasets  = [
    "time"
    "PIX7 OuterVoltage" "PIX7 InnerVoltage" "PIX7 QuasiFermiPotential" "PIX7 DisplacementCurrent" "PIX7 eCurrent"
    "PIX7 hCurrent" "PIX7 TotalCurrent" "PIX7 Charge" "BACK OuterVoltage" "BACK InnerVoltage"
    "BACK QuasiFermiPotential" "BACK DisplacementCurrent" "BACK eCurrent" "BACK hCurrent" "BACK TotalCurrent"
    "BACK Charge" "PIX8 OuterVoltage" "PIX8 InnerVoltage" "PIX8 QuasiFermiPotential" "PIX8 DisplacementCurrent"
    "PIX8 eCurrent" "PIX8 hCurrent" "PIX8 TotalCurrent" "PIX8 Charge" "PIX9 OuterVoltage"
    "PIX9 InnerVoltage" "PIX9 QuasiFermiPotential" "PIX9 DisplacementCurrent" "PIX9 eCurrent" "PIX9 hCurrent"
    "PIX9 TotalCurrent" "PIX9 Charge" "PIX1 OuterVoltage" "PIX1 InnerVoltage" "PIX1 QuasiFermiPotential"
    "PIX1 DisplacementCurrent" "PIX1 eCurrent" "PIX1 hCurrent" "PIX1 TotalCurrent" "PIX1 Charge"
    "PIX2 OuterVoltage" "PIX2 InnerVoltage" "PIX2 QuasiFermiPotential" "PIX2 DisplacementCurrent" "PIX2 eCurrent"
    "PIX2 hCurrent" "PIX2 TotalCurrent" "PIX2 Charge" "PIX3 OuterVoltage" "PIX3 InnerVoltage"
    "PIX3 QuasiFermiPotential" "PIX3 DisplacementCurrent" "PIX3 eCurrent" "PIX3 hCurrent" "PIX3 TotalCurrent"
    "PIX3 Charge" "PIX4 OuterVoltage" "PIX4 InnerVoltage" "PIX4 QuasiFermiPotential" "PIX4 DisplacementCurrent"
    "PIX4 eCurrent" "PIX4 hCurrent" "PIX4 TotalCurrent" "PIX4 Charge" "PIX5 OuterVoltage"
    "PIX5 InnerVoltage" "PIX5 QuasiFermiPotential" "PIX5 DisplacementCurrent" "PIX5 eCurrent" "PIX5 hCurrent"
    "PIX5 TotalCurrent" "PIX5 Charge" "PIX6 OuterVoltage" "PIX6 InnerVoltage" "PIX6 QuasiFermiPotential"
    "PIX6 DisplacementCurrent" "PIX6 eCurrent" "PIX6 hCurrent" "PIX6 TotalCurrent" "PIX6 Charge" ]
  functions = [
    Time
    OuterVoltage InnerVoltage QuasiFermiPotential DisplacementCurrent eCurrent
    hCurrent TotalCurrent Charge OuterVoltage InnerVoltage
    QuasiFermiPotential DisplacementCurrent eCurrent hCurrent TotalCurrent
    Charge OuterVoltage InnerVoltage QuasiFermiPotential DisplacementCurrent
    eCurrent hCurrent TotalCurrent Charge OuterVoltage
    InnerVoltage QuasiFermiPotential DisplacementCurrent eCurrent hCurrent
    TotalCurrent Charge OuterVoltage InnerVoltage QuasiFermiPotential
    DisplacementCurrent eCurrent hCurrent TotalCurrent Charge
    OuterVoltage InnerVoltage QuasiFermiPotential DisplacementCurrent eCurrent
    hCurrent TotalCurrent Charge OuterVoltage InnerVoltage
    QuasiFermiPotential DisplacementCurrent eCurrent hCurrent TotalCurrent
    Charge OuterVoltage InnerVoltage QuasiFermiPotential DisplacementCurrent
    eCurrent hCurrent TotalCurrent Charge OuterVoltage
    InnerVoltage QuasiFermiPotential DisplacementCurrent eCurrent hCurrent
    TotalCurrent Charge OuterVoltage InnerVoltage QuasiFermiPotential
    DisplacementCurrent eCurrent hCurrent TotalCurrent Charge ]
}

Data {
      0.00000000000000E+00
      0.00000000000000E+00   0.00000000000000E+00   0.00000000000000E+00  -7.41639767642022E-30  -1.53131048027052E-19
     -4.31859537534063E-15  -4.31874850638866E-15  -3.17924148555976E-15   2.00000000000000E+02   2.00000000000000E+02
      0.00000000000000E+00   4.92791608095790E-25   6.12578876681494E-12   1.11179066907233E-11   1.72436954575388E-11
      1.68177494282920E-14   0.00000000000000E+00   0.00000000000000E+00   0.00000000000000E+00  -1.07125744214959E-29
     -1.53722664892220E-19  -4.81527078308231E-15  -4.81542450574721E-15  -3.20780957579879E-15   0.00000000000000E+00
      0.00000000000000E+00   0.00000000000000E+00   6.75056997391493E-27  -1.71999968914495E-11  -1.05034289609497E-14
     -1.72105003204104E-11   7.07088673081416E-15   0.00000000000000E+00   0.00000000000000E+00   0.00000000000000E+00
      2.88415465194120E-30  -7.62087392901926E-20  -2.46869454736120E-15  -2.46877075610049E-15  -1.61914747595537E-15
      0.00000000000000E+00   0.00000000000000E+00   0.00000000000000E+00  -1.64808837253783E-30  -1.53788914581493E-19
     -4.32533135810606E-15  -4.32548514702064E-15  -3.17225982985196E-15   0.00000000000000E+00   0.00000000000000E+00
      0.00000000000000E+00  -1.07125744214959E-29  -1.53740597260605E-19  -4.31529881004926E-15  -4.31545255064653E-15
     -3.17675365052508E-15   0.00000000000000E+00   0.00000000000000E+00   0.00000000000000E+00  -8.24044186268913E-30
     -1.53731158912797E-19  -4.31641513268356E-15  -4.31656886384248E-15  -3.17760403665464E-15   0.00000000000000E+00
      0.00000000000000E+00   0.00000000000000E+00  -1.31847069803026E-29  -1.89248307215442E-19  -4.31692432986247E-15
     -4.31711357816970E-15  -3.17799024863341E-15   0.00000000000000E+00   0.00000000000000E+00   0.00000000000000E+00
     -1.23606627940337E-29  -1.53132060281153E-19  -4.31742008837359E-15  -4.31757322043388E-15  -3.17836422924232E-15
      1.00000000000000E-13
      0.00000000000000E+00   0.00000000000000E+00   0.00000000000000E+00   3.77668896890415E-07  -1.53109145416048E-19
      2.36703846027154E-06   2.74470735716180E-06  -3.17896701481995E-15   2.00000000000000E+02   2.00000000000000E+02
      0.00000000000000E+00  -1.97627534555427E-04   2.01807023922801E-04   1.58246012197197E-13   4.17948952561992E-06
      1.68181673755201E-14   0.00000000000000E+00   0.00000000000000E+00   0.00000000000000E+00   2.12408898594347E-07
     -1.53687024843017E-19   4.11118874834681E-06   4.32359764694100E-06  -3.20737721572419E-15   0.00000000000000E+00
      0.00000000000000E+00   0.00000000000000E+00  -2.11313926860684E-04  -1.62063741694907E-11  -4.38901192271618E-06
     -2.15702954989775E-04   7.04931644024211E-15   0.00000000000000E+00   0.00000000000000E+00   0.00000000000000E+00
     -3.12793352050021E-05  -7.58471768241924E-20   2.16730722834373E-04   1.85451387629371E-04  -1.60060234528399E-15
      0.00000000000000E+00   0.00000000000000E+00   0.00000000000000E+00   1.38590388515294E-05  -1.53701273302301E-19
      2.47931642839246E-06   1.63383552799217E-05  -3.17062599151638E-15   0.00000000000000E+00   0.00000000000000E+00
      0.00000000000000E+00   2.99710447771248E-06  -1.53724022658886E-19  -2.75698739717372E-07   2.72140573799496E-06
     -3.17648150893602E-15   0.00000000000000E+00   0.00000000000000E+00   0.00000000000000E+00   1.30512850897289E-06
     -1.53720031483771E-19   1.85161130433972E-07   1.49028963940671E-06  -3.17745500724090E-15   0.00000000000000E+00
      0.00000000000000E+00   0.00000000000000E+00   7.48400353456313E-07  -1.89234836527874E-19   9.90101746754360E-07
      1.73850210021048E-06  -3.17781639821863E-15   0.00000000000000E+00   0.00000000000000E+00   0.00000000000000E+00
      4.99894777361562E-07  -1.53116041291763E-19   1.55905644786362E-06   2.05895122522503E-06  -3.17815833402219E-15
      2.00000000000000E-13
      0.00000000000000E+00   0.00000000000000E+00   0.00000000000000E+00  -7.56590489741213E-08  -1.53135738339658E-19
     -7.31762441820544E-07  -8.07421490794819E-07  -3.17904775685297E-15   2.00000000000000E+02   2.00000000000000E+02
      0.00000000000000E+00  -1.91695835506674E-05   1.80356946806022E-05   1.48577611472681E-13  -1.13388872148759E-06
      1.68180539849236E-14   0.00000000000000E+00   0.00000000000000E+00   0.00000000000000E+00  -9.90972304967154E-08
     -1.53720705648674E-19   1.52718808050907E-07   5.36215775540379E-08  -3.20737185295987E-15   0.00000000000000E+00
      0.00000000000000E+00   0.00000000000000E+00  -4.48897214465913E-08  -1.62430815465784E-11  -2.75983061186138E-06
     -2.80473657638951E-06   7.04903596703086E-15   0.00000000000000E+00   0.00000000000000E+00   0.00000000000000E+00
     -4.44204869844230E-06  -7.72684945241954E-20   4.80606608729882E-05   4.36186121745458E-05  -1.59624049753780E-15
      0.00000000000000E+00   0.00000000000000E+00   0.00000000000000E+00  -7.05482739734532E-07  -1.53934653981448E-19
     -2.53492697695614E-05  -2.60547525092961E-05  -3.17323145685413E-15   0.00000000000000E+00   0.00000000000000E+00
      0.00000000000000E+00  -1.55437281635017E-07  -1.53779140743020E-19  -6.69033816275491E-06  -6.84577544439008E-06
     -3.17716608414637E-15   0.00000000000000E+00   0.00000000000000E+00   0.00000000000000E+00  -7.33021783741267E-08
     -1.53747300427426E-19  -2.93649863006904E-06  -3.00980080844332E-06  -3.17775598632768E-15   0.00000000000000E+00
      0.00000000000000E+00   0.00000000000000E+00  -6.39266523331751E-08  -1.89258804543500E-19  -1.75825673586145E-06
     -1.82218338819482E-06  -3.17799861605176E-15   0.00000000000000E+00   0.00000000000000E+00   0.00000000000000E+00
     -6.44581890533273E-08  -1.53139342160586E-19  -1.12921662397514E-06  -1.19367481302862E-06  -3.17827770122389E-15
      3.00000000000000E-13
      0.00000000000000E+00   0.00000000000000E+00   0.00000000000000E+00   7.76973738540862E-09  -1.53133638396686E-19
     -4.51856113306036E-07  -4.44086375920781E-07  -3.17909216529177E-15   2.00000000000000E+02   2.00000000000000E+02
      0.00000000000000E+00  -6.12924826153777E-06   5.85586596891106E-06   1.44302298650131E-13  -2.73382148324410E-07
      1.68180266449845E-14   0.00000000000000E+00   0.00000000000000E+00   0.00000000000000E+00  -3.72456488378872E-10
     -1.53721329379709E-19   1.05301179641823E-07   1.04928723153291E-07  -3.20736135929878E-15   0.00000000000000E+00
      0.00000000000000E+00   0.00000000000000E+00  -2.18406861884047E-09  -1.62548131996239E-11  -1.64201602051226E-06
     -1.64421634394430E-06   7.04887154259922E-15   0.00000000000000E+00   0.00000000000000E+00   0.00000000000000E+00
     -5.56026687187273E-07  -7.74514083790692E-20   2.58941327080360E-05   2.53381060208487E-05  -1.59370670363150E-15
      0.00000000000000E+00   0.00000000000000E+00   0.00000000000000E+00   2.29642108898107E-07  -1.53863973011910E-19
     -1.67498257515739E-05  -1.65201836426760E-05  -3.17488346057595E-15   0.00000000000000E+00   0.00000000000000E+00
      0.00000000000000E+00   8.15781450742689E-08  -1.53754535506091E-19  -3.64435486314136E-06  -3.56277671806724E-06
     -3.17752235866176E-15   0.00000000000000E+00   0.00000000000000E+00   0.00000000000000E+00   3.81496626676141E-08
     -1.53736086240943E-19  -1.52591035662357E-06  -1.48776069395611E-06  -3.17790476106415E-15   0.00000000000000E+00
      0.00000000000000E+00   0.00000000000000E+00   2.23944068301903E-08  -1.89252170822038E-19  -9.17120214212447E-07
     -8.94725807382446E-07  -3.17808808793493E-15   0.00000000000000E+00   0.00000000000000E+00   0.00000000000000E+00
      1.35560276512425E-08  -1.53135473713918E-19  -6.29459041287282E-07  -6.15903013636193E-07  -3.17833929112471E-15
      4.00000000000000E-13
      0.00000000000000E+00   0.00000000000000E+00   0.00000000000000E+00   4.66707541016074E-09  -1.53132366001635E-19
     -2.82703660356149E-07  -2.78036584946141E-07  -3.17911996869266E-15   2.00000000000000E+02   2.00000000000000E+02
      0.00000000000000E+00  -3.34397945169991E-06   3.29619613964410E-06   1.41696232414567E-13  -4.77831703595806E-08
      1.68180218649429E-14   0.00000000000000E+00   0.00000000000000E+00   0.00000000000000E+00  -3.17601822466899E-10
     -1.53721682161167E-19   7.82058895613585E-08   7.78882877387379E-08  -3.20735356956466E-15   0.00000000000000E+00
      0.00000000000000E+00   0.00000000000000E+00  -2.92530613053665E-09  -1.62658712075471E-11  -9.95280503827134E-07
     -9.98222075828878E-07   7.04877171545937E-15   0.00000000000000E+00   0.00000000000000E+00   0.00000000000000E+00
     -2.54957840149897E-07  -7.75343697958188E-20   1.57229521676190E-05   1.54679943274690E-05  -1.59215992295899E-15
      0.00000000000000E+00   0.00000000000000E+00   0.00000000000000E+00   1.59738878707085E-07  -1.53814497419273E-19
     -1.06818101117654E-05  -1.05220712330585E-05  -3.17593564996708E-15   0.00000000000000E+00   0.00000000000000E+00
      0.00000000000000E+00   4.21255947490576E-08  -1.53741851175558E-19  -2.05679897361870E-06  -2.01467337886980E-06
     -3.17772382232537E-15   0.00000000000000E+00   0.00000000000000E+00   0.00000000000000E+00   1.82521488500987E-08
     -1.53730768764320E-19  -8.46476402076104E-07  -8.28224253226159E-07  -3.17798758194223E-15   0.00000000000000E+00
      0.00000000000000E+00   0.00000000000000E+00   1.07763874395919E-08  -1.89249010871930E-19  -5.11156532020619E-07
     -5.00380144581216E-07  -3.17813812512905E-15   0.00000000000000E+00   0.00000000000000E+00   0.00000000000000E+00
      7.22705132362383E-09  -1.53133436116827E-19  -3.63718825721263E-07  -3.56491774397793E-07  -3.17837493982219E-15
      5.00000000000000E-13
      0.00000000000000E+00   0.00000000000000E+00   0.00000000000000E+00   2.67031963467123E-09  -1.53131643092714E-19
     -1.86527337789839E-07  -1.83857018155321E-07  -3.17913835409583E-15   2.00000000000000E+02   2.00000000000000E+02
      0.00000000000000E+00  -2.23785213311153E-06   2.25104283987932E-06   1.39849182272382E-13   1.31908466169712E-08
      1.68180231823032E-14   0.00000000000000E+00   0.00000000000000E+00   0.00000000000000E+00  -5.49025448853095E-10
     -1.53721993206264E-19   4.88624371077346E-08   4.83134116587278E-08  -3.20734873724159E-15   0.00000000000000E+00
      0.00000000000000E+00   0.00000000000000E+00  -5.26905981500797E-09  -1.62776650160979E-11  -6.14175753456776E-07
     -6.19461090936800E-07   7.04870976308787E-15   0.00000000000000E+00   0.00000000000000E+00   0.00000000000000E+00
     -1.48025009215988E-07  -7.75817320244253E-20   9.84893204792568E-06   9.70090703870961E-06  -1.59118985240944E-15
      0.00000000000000E+00   0.00000000000000E+00   0.00000000000000E+00   1.00679215349488E-07  -1.53783345160023E-19
     -6.83857268484841E-06  -6.73789346949908E-06  -3.17660941957507E-15   0.00000000000000E+00   0.00000000000000E+00
      0.00000000000000E+00   2.19963971280792E-08  -1.53735286381172E-19  -1.22698259216730E-06  -1.20498619503938E-06
     -3.17784431693989E-15   0.00000000000000E+00   0.00000000000000E+00   0.00000000000000E+00   9.18337209284325E-09
     -1.53728137656839E-19  -5.05556516674920E-07  -4.96373144582231E-07  -3.17803721757168E-15   0.00000000000000E+00
      0.00000000000000E+00   0.00000000000000E+00   5.46027551935912E-09  -1.89247438899526E-19  -3.06415719317829E-07
     -3.00955443798659E-07  -3.17816821977386E-15   0.00000000000000E+00   0.00000000000000E+00   0.00000000000000E+00
      3.86987440794427E-09  -1.53132365713870E-19  -2.22754809423799E-07  -2.18884935016008E-07  -3.17839682778367E-15
      6.00000000000000E-13
      0.00000000000000E+00   0.00000000000000E+00   0.00000000000000E+00   1.66485448061873E-09  -1.53131186583826E-19
     -1.26576364203057E-07  -1.24911509722591E-07  -3.17915084491964E-15   2.00000000000000E+02   2.00000000000000E+02
      0.00000000000000E+00  -1.65786646783130E-06   1.68601314005118E-06   1.38394087848963E-13   2.81468106139681E-08
      1.68180259952599E-14   0.00000000000000E+00   0.00000000000000E+00   0.00000000000000E+00  -4.20346423236935E-10
     -1.53722200337188E-19   2.78355519857504E-08   2.74152055623598E-08  -3.20734599468736E-15   0.00000000000000E+00
      0.00000000000000E+00   0.00000000000000E+00  -6.42234493798642E-09  -1.62895189606353E-11  -3.85415388441916E-07
     -3.91854022898863E-07   7.04867057063440E-15   0.00000000000000E+00   0.00000000000000E+00   0.00000000000000E+00
     -8.96688797995385E-08  -7.76098853051833E-20   6.30119973242547E-06   6.21153085262586E-06  -1.59056872047035E-15
      0.00000000000000E+00   0.00000000000000E+00   0.00000000000000E+00   6.32720089260956E-08  -1.53763813702006E-19
     -4.41796767996027E-06  -4.35469567103433E-06  -3.17704486809514E-15   0.00000000000000E+00   0.00000000000000E+00
      0.00000000000000E+00   1.22475018981834E-08  -1.53731658878834E-19  -7.65385103953885E-07  -7.53137602055856E-07
     -3.17791962647961E-15   0.00000000000000E+00   0.00000000000000E+00   0.00000000000000E+00   5.06618219234617E-09
     -1.53726702285934E-19  -3.18164498495553E-07  -3.13098316303360E-07  -3.17806852562789E-15   0.00000000000000E+00
      0.00000000000000E+00   0.00000000000000E+00   3.03924419949158E-09  -1.89246572353697E-19  -1.92875853851096E-07
     -1.89836609651793E-07  -3.17818720248329E-15   0.00000000000000E+00   0.00000000000000E+00   0.00000000000000E+00
      2.23541974308143E-09  -1.53131750001347E-19  -1.41794556892423E-07  -1.39559137149495E-07  -3.17841078313092E-15
      7.00000000000000E-13
      0.00000000000000E+00   0.00000000000000E+00   0.00000000000000E+00   1.08436758983713E-09  -1.53130882513237E-19
     -8.74235192689972E-08  -8.63391516793132E-08  -3.17915947848771E-15   2.00000000000000E+02   2.00000000000000E+02
      0.00000000000000E+00  -1.30368818116684E-06   1.33427161818347E-06   1.37202302404378E-13   3.05835742189313E-08
      1.68180290518929E-14   0.00000000000000E+00   0.00000000000000E+00   0.00000000000000E+00  -2.67917558937368E-10
     -1.53722323513280E-19   1.45807558415655E-08   1.43128382824744E-08  -3.20734456233366E-15   0.00000000000000E+00
      0.00000000000000E+00   0.00000000000000E+00  -6.68069459558393E-09  -1.63009246686065E-11  -2.46115683333297E-07
     -2.52812678853549E-07   7.04864528187987E-15   0.00000000000000E+00   0.00000000000000E+00   0.00000000000000E+00
     -5.54748009274562E-08  -7.76268931011040E-20   4.11001951170081E-06   4.05454471077328E-06  -1.59016328788970E-15
      0.00000000000000E+00   0.00000000000000E+00   0.00000000000000E+00   3.98737791313196E-08  -1.53751544308013E-19
     -2.89092312296662E-06  -2.85104934383545E-06  -3.17732995112143E-15   0.00000000000000E+00   0.00000000000000E+00
      0.00000000000000E+00   7.17285153599873E-09  -1.53729546192703E-19  -4.95427060866398E-07  -4.88254209330553E-07
     -3.17796844753627E-15   0.00000000000000E+00   0.00000000000000E+00   0.00000000000000E+00   2.98155556690906E-09
     -1.53725861115526E-19  -2.08198935953071E-07  -2.05217380386316E-07  -3.17808904552977E-15   0.00000000000000E+00
      0.00000000000000E+00   0.00000000000000E+00   1.79696800819629E-09  -1.89246061281359E-19  -1.25912376747797E-07
     -1.24115408739790E-07  -3.17819961303781E-15   0.00000000000000E+00   0.00000000000000E+00   0.00000000000000E+00
      1.35152361536359E-09  -1.53131376472947E-19  -9.30044739816496E-08  -9.16529503664392E-08  -3.17841994783636E-15
      8.00000000000000E-13
      0.00000000000000E+00   0.00000000000000E+00   0.00000000000000E+00   7.20945697655965E-10  -1.53130676091752E-19
     -6.13031426275102E-08  -6.05821969300074E-08  -3.17916553634624E-15   2.00000000000000E+02   2.00000000000000E+02
      0.00000000000000E+00  -1.06649847574701E-06   1.09654622793216E-06   1.36179383570077E-13   3.00478883645355E-08
      1.68180320549573E-14   0.00000000000000E+00   0.00000000000000E+00   0.00000000000000E+00  -1.58382849827191E-10
     -1.53722391169507E-19   6.66852041238629E-09   6.51013756240537E-09  -3.20734391022371E-15   0.00000000000000E+00
      0.00000000000000E+00   0.00000000000000E+00  -6.45578580983635E-09  -1.63116528909247E-11  -1.60238572200428E-07
     -1.66710669663155E-07   7.04862860311936E-15   0.00000000000000E+00   0.00000000000000E+00   0.00000000000000E+00
     -3.48607043398432E-08  -7.76372419694645E-20   2.73446851602448E-06   2.69960781168456E-06  -1.58989334958771E-15
      0.00000000000000E+00   0.00000000000000E+00   0.00000000000000E+00   2.52678370654652E-08  -1.53743800287583E-19
     -1.92278845259410E-06  -1.89752061552879E-06  -3.17751968069994E-15   0.00000000000000E+00   0.00000000000000E+00
      0.00000000000000E+00   4.36840614719492E-09  -1.53728263885086E-19  -3.31225760744816E-07  -3.26857354597775E-07
     -3.17800112880891E-15   0.00000000000000E+00   0.00000000000000E+00   0.00000000000000E+00   1.83316924424312E-09
     -1.53725343283637E-19  -1.40713116124494E-07  -1.38879946880404E-07  -3.17810293164641E-15   0.00000000000000E+00
      0.00000000000000E+00   0.00000000000000E+00   1.10414106723611E-09  -1.89245745874202E-19  -8.48332830058492E-08
     -8.37291419388024E-08  -3.17820798494170E-15   0.00000000000000E+00   0.00000000000000E+00   0.00000000000000E+00
      8.40294168001714E-10  -1.53131141078379E-19  -6.27262063716351E-08  -6.18859122037865E-08  -3.17842613582205E-15
      9.00000000000000E-13
      0.00000000000000E+00   0.00000000000000E+00   0.00000000000000E+00   4.84441511939857E-10  -1.53130533848207E-19
     -4.36942114230616E-08  -4.32097699112749E-08  -3.17916985695198E-15   2.00000000000000E+02   2.00000000000000E+02
      0.00000000000000E+00  -8.97871196613203E-07   9.26987619746237E-07   1.35292361370399E-13   2.91165584253960E-08
      1.68180349648887E-14   0.00000000000000E+00   0.00000000000000E+00   0.00000000000000E+00  -8.97010218504554E-11
     -1.53722426194503E-19   2.08069710277687E-09   1.99099608077269E-09  -3.20734371000800E-15   0.00000000000000E+00
      0.00000000000000E+00   0.00000000000000E+00  -6.01110123609709E-09  -1.63216442870563E-11  -1.06665624839822E-07
     -1.12693047720206E-07   7.04861732606248E-15   0.00000000000000E+00   0.00000000000000E+00   0.00000000000000E+00
     -2.22069500360287E-08  -7.76435450573819E-20   1.85880509727947E-06   1.83659814724337E-06  -1.58970971274135E-15
      0.00000000000000E+00   0.00000000000000E+00   0.00000000000000E+00   1.61375994384321E-08  -1.53738878746277E-19
     -1.30437722332045E-06  -1.28823962388218E-06  -3.17764848178874E-15   0.00000000000000E+00   0.00000000000000E+00
      0.00000000000000E+00   2.74321744624061E-09  -1.53727460476581E-19  -2.28207891545181E-07  -2.25464674099094E-07
     -3.17802367074410E-15   0.00000000000000E+00   0.00000000000000E+00   0.00000000000000E+00   1.16177401029063E-09
     -1.53725013437307E-19  -9.79868782040817E-08  -9.68251041939448E-08  -3.17811261224905E-15   0.00000000000000E+00
      0.00000000000000E+00   0.00000000000000E+00   6.96491692317048E-10  -1.89245546059070E-19  -5.89484487238692E-08
     -5.82519570317414E-08  -3.17821380911020E-15   0.00000000000000E+00   0.00000000000000E+00   0.00000000000000E+00
      5.32671067339800E-10  -1.53130990039135E-19  -4.35541959713136E-08  -4.30215249041270E-08  -3.17843043735780E-15
      1.00000000000000E-12
      0.00000000000000E+00   0.00000000000000E+00   0.00000000000000E+00   3.27737048687197E-10  -1.53130435137354E-19
     -3.17470096906129E-08  -3.14192726420789E-08  -3.17917299850066E-15   2.00000000000000E+02   2.00000000000000E+02
      0.00000000000000E+00  -7.72836195222782E-07   8.01207952096608E-07   1.34487619891876E-13   2.83718913614457E-08
      1.68180378003535E-14   0.00000000000000E+00   0.00000000000000E+00   0.00000000000000E+00  -4.90732727432780E-11
     -1.53722441376851E-19  -5.27958074500648E-10  -5.77031347397648E-10  -3.20734376657928E-15   0.00000000000000E+00
      0.00000000000000E+00   0.00000000000000E+00  -5.49279886332982E-09  -1.63309239081374E-11  -7.28297978011566E-08
     -7.83389275883946E-08   7.04860948445576E-15   0.00000000000000E+00   0.00000000000000E+00   0.00000000000000E+00
     -1.43341339289908E-08  -7.76473608226214E-20   1.29385878722045E-06   1.27952465329138E-06  -1.58958178366842E-15
      0.00000000000000E+00   0.00000000000000E+00   0.00000000000000E+00   1.04082653239939E-08  -1.53735724110759E-19
     -9.05524485701618E-07  -8.95116220377778E-07  -3.17773797026686E-15   0.00000000000000E+00   0.00000000000000E+00
      0.00000000000000E+00   1.76589534345763E-09  -1.53726942538482E-19  -1.61931579027434E-07  -1.60165683684130E-07
     -3.17803968272993E-15   0.00000000000000E+00   0.00000000000000E+00   0.00000000000000E+00   7.53033006309045E-10
     -1.53724797373779E-19  -7.03043753184885E-08  -6.95513423123332E-08  -3.17811956545383E-15   0.00000000000000E+00
      0.00000000000000E+00   0.00000000000000E+00   4.48287942696296E-10  -1.89245415979010E-19  -4.23017194315392E-08
     -4.18534314890322E-08  -3.17821799341381E-15   0.00000000000000E+00   0.00000000000000E+00   0.00000000000000E+00
      3.43016903473140E-10  -1.53130890682940E-19  -3.12176521609435E-08  -3.08746352576234E-08  -3.17843352419644E-15
      1.10000000000000E-12
      0.00000000000000E+00   0.00000000000000E+00   0.00000000000000E+00   2.23085462498209E-10  -1.53130366129493E-19
     -2.35965745889425E-08  -2.33734891265975E-08  -3.17917533546552E-15   2.00000000000000E+02   2.00000000000000E+02
      0.00000000000000E+00  -6.77077575309874E-07   7.04942578784627E-07   1.33762518579237E-13   2.78651372372712E-08
      1.68180405851428E-14   0.00000000000000E+00   0.00000000000000E+00   0.00000000000000E+00  -2.58211780762695E-11
     -1.53722447033460E-19  -1.98484858716759E-09  -2.01066976539759E-09  -3.20734396650146E-15   0.00000000000000E+00
      0.00000000000000E+00   0.00000000000000E+00  -4.97572870926142E-09  -1.63395525346458E-11  -5.11675879818914E-08
     -5.61596562436875E-08   7.04860386087827E-15   0.00000000000000E+00   0.00000000000000E+00   0.00000000000000E+00
     -9.38050397686012E-09  -7.76496345311857E-20   9.24295035781146E-07   9.14914531804208E-07  -1.58949031598782E-15
      0.00000000000000E+00   0.00000000000000E+00   0.00000000000000E+00   6.79279489046638E-09  -1.53733680985124E-19
     -6.45248566048761E-07  -6.38455771158449E-07  -3.17780179250945E-15   0.00000000000000E+00   0.00000000000000E+00
      0.00000000000000E+00   1.16110844681807E-09  -1.53726602152511E-19  -1.18368035337659E-07  -1.17206926890995E-07
     -3.17805139880262E-15   0.00000000000000E+00   0.00000000000000E+00   0.00000000000000E+00   4.97320034456998E-10
     -1.53724653308196E-19  -5.20239616127715E-08  -5.15266415784682E-08  -3.17812471617224E-15   0.00000000000000E+00
      0.00000000000000E+00   0.00000000000000E+00   2.93638426202653E-10  -1.89245329533690E-19  -3.14042457986631E-08
     -3.11106073726497E-08  -3.17822110342579E-15   0.00000000000000E+00   0.00000000000000E+00   0.00000000000000E+00
      2.24173330657083E-10  -1.53130824111280E-19  -2.31600801253037E-08  -2.29359067947998E-08  -3.17843581715615E-15
      1.20000000000000E-12
      0.00000000000000E+00   0.00000000000000E+00   0.00000000000000E+00   1.52859426015030E-10  -1.53130317459675E-19
     -1.80022213172836E-08  -1.78493618914217E-08  -3.17917712001353E-15   2.00000000000000E+02   2.00000000000000E+02
      0.00000000000000E+00  -6.01761123320343E-07   6.29294358233399E-07   1.33096952795169E-13   2.75333680100088E-08
      1.68180433367553E-14   0.00000000000000E+00   0.00000000000000E+00   0.00000000000000E+00  -1.27757723451887E-11
     -1.53722446912665E-19  -2.78008241176769E-09  -2.79285818426661E-09  -3.20734424463151E-15   0.00000000000000E+00
      0.00000000000000E+00   0.00000000000000E+00  -4.49469026483018E-09  -1.63476016763324E-11  -3.70850512180717E-08
     -4.15960890845782E-08   7.04859969380251E-15   0.00000000000000E+00   0.00000000000000E+00   0.00000000000000E+00
     -6.23131094015747E-09  -7.76509451147050E-20   6.78887928140118E-07   6.72656617199883E-07  -1.58942307444827E-15
      0.00000000000000E+00   0.00000000000000E+00   0.00000000000000E+00   4.49520376446205E-09  -1.53732340918399E-19
     -4.73039582867927E-07  -4.68544379103619E-07  -3.17784862347627E-15   0.00000000000000E+00   0.00000000000000E+00
      0.00000000000000E+00   7.78439578922038E-10  -1.53726373948523E-19  -8.91662458939045E-08  -8.83878063151361E-08
     -3.17806023293464E-15   0.00000000000000E+00   0.00000000000000E+00   0.00000000000000E+00   3.34221683928943E-10
     -1.53724554357575E-19  -3.97374117387567E-08  -3.94031900549814E-08  -3.17812865453299E-15   0.00000000000000E+00
      0.00000000000000E+00   0.00000000000000E+00   1.95708470627122E-10  -1.89245270848997E-19  -2.41453010712302E-08
     -2.39495926007923E-08  -3.17822349732918E-15   0.00000000000000E+00   0.00000000000000E+00   0.00000000000000E+00
      1.48763729040635E-10  -1.53130778606887E-19  -1.78154718560151E-08  -1.76667081271276E-08  -3.17843758319132E-15
      1.30000000000000E-12
      0.00000000000000E+00   0.00000000000000E+00   0.00000000000000E+00   1.05598599220546E-10  -1.53130282750339E-19
     -1.41331179855567E-08  -1.40275193864893E-08  -3.17917852237406E-15   2.00000000000000E+02   2.00000000000000E+02
      0.00000000000000E+00  -5.41151933368500E-07   5.68459741021196E-07   1.32476368062746E-13   2.73079401290642E-08
      1.68180460658249E-14   0.00000000000000E+00   0.00000000000000E+00   0.00000000000000E+00  -5.59621119698045E-12
     -1.53722443866949E-19  -3.19806761757995E-09  -3.20366382893065E-09  -3.20734456383249E-15   0.00000000000000E+00
      0.00000000000000E+00   0.00000000000000E+00  -4.06284311248306E-09  -1.63551416438054E-11  -2.77692426541400E-08
     -3.18484409082669E-08   7.04859650166556E-15   0.00000000000000E+00   0.00000000000000E+00   0.00000000000000E+00
     -4.20867848006200E-09  -7.76516507637855E-20   5.13195813019708E-07   5.08987134539568E-07  -1.58937220018417E-15
      0.00000000000000E+00   0.00000000000000E+00   0.00000000000000E+00   3.02293074915672E-09  -1.53731450281948E-19
     -3.57258944383094E-07  -3.54236013634091E-07  -3.17788402350768E-15   0.00000000000000E+00   0.00000000000000E+00
      0.00000000000000E+00   5.31929717869480E-10  -1.53726217080319E-19  -6.92128348937672E-08  -6.86809051760515E-08
     -3.17806709635428E-15   0.00000000000000E+00   0.00000000000000E+00   0.00000000000000E+00   2.28630315974465E-10
     -1.53724486360554E-19  -3.13302770588013E-08  -3.11016467429806E-08  -3.17813176272953E-15   0.00000000000000E+00
      0.00000000000000E+00   0.00000000000000E+00   1.32850107849768E-10  -1.89245230090655E-19  -1.92203133414212E-08
     -1.90874632337607E-08  -3.17822540501403E-15   0.00000000000000E+00   0.00000000000000E+00   0.00000000000000E+00
      1.00399752243844E-10  -1.53130746817252E-19  -1.42098213743372E-08  -1.41094216222465E-08  -3.17843899349416E-15
      1.40000000000000E-12