DF-ISE text

Info {
  version   = 1.0
  type      = xyplot
  datasets  = [
    "time"
    "PIX7 OuterVoltage" "PIX7 InnerVoltage" "PIX7 QuasiFermiPotential" "PIX7 DisplacementCurrent" "PIX7 eCurrent"
    "PIX7 hCurrent" "PIX7 TotalCurrent" "PIX7 Charge" "BACK OuterVoltage" "BACK InnerVoltage"
    "BACK QuasiFermiPotential" "BACK DisplacementCurrent" "BACK eCurrent" "BACK hCurrent" "BACK TotalCurrent"
    "BACK Charge" "PIX8 OuterVoltage" "PIX8 InnerVoltage" "PIX8 QuasiFermiPotential" "PIX8 DisplacementCurrent"
    "PIX8 eCurrent" "PIX8 hCurrent" "PIX8 TotalCurrent" "PIX8 Charge" "PIX9 OuterVoltage"
    "PIX9 InnerVoltage" "PIX9 QuasiFermiPotential" "PIX9 DisplacementCurrent" "PIX9 eCurrent" "PIX9 hCurrent"
    "PIX9 TotalCurrent" "PIX9 Charge" "PIX1 OuterVoltage" "PIX1 InnerVoltage" "PIX1 QuasiFermiPotential"
    "PIX1 DisplacementCurrent" "PIX1 eCurrent" "PIX1 hCurrent" "PIX1 TotalCurrent" "PIX1 Charge"
    "PIX2 OuterVoltage" "PIX2 InnerVoltage" "PIX2 QuasiFermiPotential" "PIX2 DisplacementCurrent" "PIX2 eCurrent"
    "PIX2 hCurrent" "PIX2 TotalCurrent" "PIX2 Charge" "PIX3 OuterVoltage" "PIX3 InnerVoltage"
    "PIX3 QuasiFermiPotential" "PIX3 DisplacementCurrent" "PIX3 eCurrent" "PIX3 hCurrent" "PIX3 TotalCurrent"
    "PIX3 Charge" "PIX4 OuterVoltage" "PIX4 InnerVoltage" "PIX4 QuasiFermiPotential" "PIX4 DisplacementCurrent"
    "PIX4 eCurrent" "PIX4 hCurrent" "PIX4 TotalCurrent" "PIX4 Charge" "PIX5 OuterVoltage"
    "PIX5 InnerVoltage" "PIX5 QuasiFermiPotential" "PIX5 DisplacementCurrent" "PIX5 eCurrent" "PIX5 hCurrent"
    "PIX5 TotalCurrent" "PIX5 Charge" "PIX6 OuterVoltage" "PIX6 InnerVoltage" "PIX6 QuasiFermiPotential"
    "PIX6 DisplacementCurrent" "PIX6 eCurrent" "PIX6 hCurrent" "PIX6 TotalCurrent" "PIX6 Charge" ]
  functions = [
    Time
    OuterVoltage InnerVoltage QuasiFermiPotential DisplacementCurrent eCurrent
    hCurrent TotalCurrent Charge OuterVoltage InnerVoltage
    QuasiFermiPotential DisplacementCurrent eCurrent hCurrent TotalCurrent
    Charge OuterVoltage InnerVoltage QuasiFermiPotential DisplacementCurrent
    eCurrent hCurrent TotalCurrent Charge OuterVoltage
    InnerVoltage QuasiFermiPotential DisplacementCurrent eCurrent hCurrent
    TotalCurrent Charge OuterVoltage InnerVoltage QuasiFermiPotential
    DisplacementCurrent eCurrent hCurrent TotalCurrent Charge
    OuterVoltage InnerVoltage QuasiFermiPotential DisplacementCurrent eCurrent
    hCurrent TotalCurrent Charge OuterVoltage InnerVoltage
    QuasiFermiPotential DisplacementCurrent eCurrent hCurrent TotalCurrent
    Charge OuterVoltage InnerVoltage QuasiFermiPotential DisplacementCurrent
    eCurrent hCurrent TotalCurrent Charge OuterVoltage
    InnerVoltage QuasiFermiPotential DisplacementCurrent eCurrent hCurrent
    TotalCurrent Charge OuterVoltage InnerVoltage QuasiFermiPotential
    DisplacementCurrent eCurrent hCurrent TotalCurrent Charge ]
}

Data {
      0.00000000000000E+00
      0.00000000000000E+00   0.00000000000000E+00   0.00000000000000E+00  -7.41639767642022E-30  -1.53131048027052E-19
     -4.31859537534063E-15  -4.31874850638866E-15  -3.17924148555976E-15   2.00000000000000E+02   2.00000000000000E+02
      0.00000000000000E+00   4.48912903265343E-25   1.61236427084046E-11   1.12005274913377E-12   1.72436954575388E-11
      1.68177494282920E-14   0.00000000000000E+00   0.00000000000000E+00   0.00000000000000E+00  -1.07125744214959E-29
     -1.53722664892220E-19  -4.81527078308231E-15  -4.81542450574721E-15  -3.20780957579879E-15   0.00000000000000E+00
      0.00000000000000E+00   0.00000000000000E+00   6.75056997391493E-27  -1.71999968914495E-11  -1.05034289609497E-14
     -1.72105003204104E-11   7.07088673081416E-15   0.00000000000000E+00   0.00000000000000E+00   0.00000000000000E+00
      2.88415465194120E-30  -7.62087392901926E-20  -2.46869454736120E-15  -2.46877075610049E-15  -1.61914747595537E-15
      0.00000000000000E+00   0.00000000000000E+00   0.00000000000000E+00  -1.64808837253783E-30  -1.53788914581493E-19
     -4.32533135810606E-15  -4.32548514702064E-15  -3.17225982985196E-15   0.00000000000000E+00   0.00000000000000E+00
      0.00000000000000E+00  -1.07125744214959E-29  -1.53740597260605E-19  -4.31529881004926E-15  -4.31545255064653E-15
     -3.17675365052508E-15   0.00000000000000E+00   0.00000000000000E+00   0.00000000000000E+00  -8.24044186268913E-30
     -1.53731158912797E-19  -4.31641513268356E-15  -4.31656886384248E-15  -3.17760403665464E-15   0.00000000000000E+00
      0.00000000000000E+00   0.00000000000000E+00  -1.31847069803026E-29  -1.89248307215442E-19  -4.31692432986247E-15
     -4.31711357816970E-15  -3.17799024863341E-15   0.00000000000000E+00   0.00000000000000E+00   0.00000000000000E+00
     -1.23606627940337E-29  -1.53132060281153E-19  -4.31742008837359E-15  -4.31757322043388E-15  -3.17836422924232E-15
      1.00000000000000E-13
      0.00000000000000E+00   0.00000000000000E+00   0.00000000000000E+00   3.79470229867061E-07  -1.53108567217451E-19
      2.43702043996769E-06   2.81649066983460E-06  -3.17895983649107E-15   2.00000000000000E+02   2.00000000000000E+02
      0.00000000000000E+00  -1.97671353916677E-04   2.01171929263056E-04   1.58205583659500E-13   3.50057550458514E-06
      1.68180994841180E-14   0.00000000000000E+00   0.00000000000000E+00   0.00000000000000E+00   2.14148571368075E-07
     -1.53686470064615E-19   4.17820289935065E-06   4.39235147071857E-06  -3.20737034034355E-15   0.00000000000000E+00
      0.00000000000000E+00   0.00000000000000E+00  -2.11311722795928E-04  -1.62043831296421E-11  -4.35749775838672E-06
     -2.15669236758698E-04   7.04931981208681E-15   0.00000000000000E+00   0.00000000000000E+00   0.00000000000000E+00
     -3.12780263315412E-05  -7.58467591291312E-20   2.16780693861023E-04   1.85502667529482E-04  -1.60059721729508E-15
      0.00000000000000E+00   0.00000000000000E+00   0.00000000000000E+00   1.38615983480764E-05  -1.53700457329846E-19
      2.57787781219857E-06   1.64394761602749E-05  -3.17061587943227E-15   0.00000000000000E+00   0.00000000000000E+00
      0.00000000000000E+00   2.99955906576145E-06  -1.53723240221210E-19  -1.81174798992900E-07   2.81838426676840E-06
     -3.17647181108656E-15   0.00000000000000E+00   0.00000000000000E+00   0.00000000000000E+00   1.30742960290112E-06
     -1.53719298056963E-19   2.73772172123572E-07   1.58120177502454E-06  -3.17744591603051E-15   0.00000000000000E+00
      0.00000000000000E+00   0.00000000000000E+00   7.50583965096940E-07  -1.89234136963481E-19   1.07477549540041E-06
      1.82535946049716E-06  -3.17780771248582E-15   0.00000000000000E+00   0.00000000000000E+00   0.00000000000000E+00
      5.01839750676468E-07  -1.53115416943020E-19   1.63462132295998E-06   2.13646107363630E-06  -3.17815058304000E-15
      2.00000000000000E-13
      0.00000000000000E+00   0.00000000000000E+00   0.00000000000000E+00  -7.73615110061354E-08  -1.53135710791343E-19
     -7.28002010206117E-07  -8.05363521212406E-07  -3.17904037273014E-15   2.00000000000000E+02   2.00000000000000E+02
      0.00000000000000E+00  -1.91524422917016E-05   1.79991226728759E-05   1.48534127197719E-13  -1.15331947029158E-06
      1.68179841504466E-14   0.00000000000000E+00   0.00000000000000E+00   0.00000000000000E+00  -1.00746365574267E-07
     -1.53720678635558E-19   1.56390255438820E-07   5.56438898643994E-08  -3.20736477535016E-15   0.00000000000000E+00
      0.00000000000000E+00   0.00000000000000E+00  -4.63702387342946E-08  -1.62419274883502E-11  -2.75763209629681E-06
     -2.80401857695859E-06   7.04903941070239E-15   0.00000000000000E+00   0.00000000000000E+00   0.00000000000000E+00
     -4.44328908596769E-06  -7.72684729559982E-20   4.80635978880690E-05   4.36203088021013E-05  -1.59623519988752E-15
      0.00000000000000E+00   0.00000000000000E+00   0.00000000000000E+00  -7.07901038367554E-07  -1.53934611716746E-19
     -2.53435633922301E-05  -2.60514644305978E-05  -3.17322101596700E-15   0.00000000000000E+00   0.00000000000000E+00
      0.00000000000000E+00  -1.57758034554158E-07  -1.53779100608625E-19  -6.68492503691666E-06  -6.84268307147097E-06
     -3.17715607706390E-15   0.00000000000000E+00   0.00000000000000E+00   0.00000000000000E+00  -7.54788730886782E-08
     -1.53747263223910E-19  -2.93146372905982E-06  -3.00694260214865E-06  -3.17774660930062E-15   0.00000000000000E+00
      0.00000000000000E+00   0.00000000000000E+00  -6.60192994611647E-08  -1.89258779376751E-19  -1.75472785336346E-06
     -1.82074715282481E-06  -3.17798978669930E-15   0.00000000000000E+00   0.00000000000000E+00   0.00000000000000E+00
     -6.62953876835623E-08  -1.53139312105859E-19  -1.12511847878933E-06  -1.19141386647304E-06  -3.17826972415037E-15
      3.00000000000000E-13
      0.00000000000000E+00   0.00000000000000E+00   0.00000000000000E+00   7.51802345073457E-09  -1.53133690229378E-19
     -4.57821885735450E-07  -4.50303862284869E-07  -3.17908540292057E-15   2.00000000000000E+02   2.00000000000000E+02
      0.00000000000000E+00  -6.12290362927666E-06   5.90948838450808E-06   1.44267916165795E-13  -2.13415100500667E-07
      1.68179628072122E-14   0.00000000000000E+00   0.00000000000000E+00   0.00000000000000E+00  -6.11452656734024E-10
     -1.53721378756366E-19   9.96395886938083E-08   9.90281360369206E-08  -3.20735487174995E-15   0.00000000000000E+00
      0.00000000000000E+00   0.00000000000000E+00  -2.56316284468173E-09  -1.62540372495483E-11  -1.64476287899433E-06
     -1.64734229587626E-06   7.04887467370207E-15   0.00000000000000E+00   0.00000000000000E+00   0.00000000000000E+00
     -5.56209466614131E-07  -7.74514461726084E-20   2.58898653252790E-05   2.53336558586648E-05  -1.59370185099883E-15
      0.00000000000000E+00   0.00000000000000E+00   0.00000000000000E+00   2.29279780011896E-07  -1.53864046507735E-19
     -1.67582571003479E-05  -1.65289773203361E-05  -3.17487389906140E-15   0.00000000000000E+00   0.00000000000000E+00
      0.00000000000000E+00   8.12315383465379E-08  -1.53754606205169E-19  -3.65246623579502E-06  -3.57123469744864E-06
     -3.17751319738145E-15   0.00000000000000E+00   0.00000000000000E+00   0.00000000000000E+00   3.78253326730300E-08
     -1.53736152643480E-19  -1.53353273147137E-06  -1.49570739879850E-06  -3.17789617871149E-15   0.00000000000000E+00
      0.00000000000000E+00   0.00000000000000E+00   2.20978638919661E-08  -1.89252239635164E-19  -9.25092355721906E-07
     -9.02994491830129E-07  -3.17808008545464E-15   0.00000000000000E+00   0.00000000000000E+00   0.00000000000000E+00
      1.32809699716105E-08  -1.53135530436008E-19  -6.35989797565567E-07  -6.22708827594110E-07  -3.17833199463588E-15
      4.00000000000000E-13
      0.00000000000000E+00   0.00000000000000E+00   0.00000000000000E+00   4.66550955485258E-09  -1.53132417287831E-19
     -2.88706259745577E-07  -2.84040750190878E-07  -3.17911380674083E-15   2.00000000000000E+02   2.00000000000000E+02
      0.00000000000000E+00  -3.34092432977568E-06   3.35105875975008E-06   1.41672790340294E-13   1.01345716471885E-08
      1.68179638189449E-14   0.00000000000000E+00   0.00000000000000E+00   0.00000000000000E+00  -3.17685345130540E-10
     -1.53721731218651E-19   7.24844412604981E-08   7.21667559152138E-08  -3.20734765417108E-15   0.00000000000000E+00
      0.00000000000000E+00   0.00000000000000E+00  -3.00935280659777E-09  -1.62652462906770E-11  -9.98139721901392E-07
     -1.00116533995428E-06   7.04877455226067E-15   0.00000000000000E+00   0.00000000000000E+00   0.00000000000000E+00
     -2.54957794065874E-07  -7.75344076666895E-20   1.57185865194738E-05   1.54636287254078E-05  -1.59215550688785E-15
      0.00000000000000E+00   0.00000000000000E+00   0.00000000000000E+00   1.59736521971578E-07  -1.53814571161010E-19
     -1.06904173546124E-05  -1.05306808326410E-05  -3.17592694941695E-15   0.00000000000000E+00   0.00000000000000E+00
      0.00000000000000E+00   4.21238377768653E-08  -1.53741921936130E-19  -2.06505942349082E-06  -2.02293558571411E-06
     -3.17771548726971E-15   0.00000000000000E+00   0.00000000000000E+00   0.00000000000000E+00   1.82508180325155E-08
     -1.53730835126320E-19  -8.54226005757900E-07  -8.35975187725538E-07  -3.17797977468669E-15   0.00000000000000E+00
      0.00000000000000E+00   0.00000000000000E+00   1.07839090583127E-08  -1.89249076301375E-19  -5.18838403149296E-07
     -5.08054494091172E-07  -3.17813089008716E-15   0.00000000000000E+00   0.00000000000000E+00   0.00000000000000E+00
      7.22499511620665E-09  -1.53133492350967E-19  -3.70302857876360E-07  -3.63077862760307E-07  -3.17836830194528E-15
      5.00000000000000E-13
      0.00000000000000E+00   0.00000000000000E+00   0.00000000000000E+00   2.70210423635316E-09  -1.53131683595490E-19
     -1.91287043643762E-07  -1.88584939407562E-07  -3.17913266493877E-15   2.00000000000000E+02   2.00000000000000E+02
      0.00000000000000E+00  -2.23604812726854E-06   2.29470626052528E-06   1.39818561778453E-13   5.86582730753058E-08
      1.68179696830479E-14   0.00000000000000E+00   0.00000000000000E+00   0.00000000000000E+00  -5.18242019891325E-10
     -1.53722032068381E-19   4.43116317100347E-08   4.37933896899897E-08  -3.20734327385214E-15   0.00000000000000E+00
      0.00000000000000E+00   0.00000000000000E+00  -5.28610099103014E-09  -1.62771104147966E-11  -6.16437276889062E-07
     -6.21739654990507E-07   7.04871237205578E-15   0.00000000000000E+00   0.00000000000000E+00   0.00000000000000E+00
     -1.48000908842985E-07  -7.75817619840387E-20   9.84546021166178E-06   9.69745930281872E-06  -1.59118578111313E-15
      0.00000000000000E+00   0.00000000000000E+00   0.00000000000000E+00   1.00725673353930E-07  -1.53783403526510E-19
     -6.84541386108723E-06  -6.74468818773346E-06  -3.17660139850089E-15   0.00000000000000E+00   0.00000000000000E+00
      0.00000000000000E+00   2.20411688278782E-08  -1.53735342333843E-19  -1.23354181135070E-06  -1.21150064252297E-06
     -3.17783663333265E-15   0.00000000000000E+00   0.00000000000000E+00   0.00000000000000E+00   9.22547190605702E-09
     -1.53728190103350E-19  -5.11706191183286E-07  -5.02480719277382E-07  -3.17803002107700E-15   0.00000000000000E+00
      0.00000000000000E+00   0.00000000000000E+00   5.50509637184527E-09  -1.89247489360747E-19  -3.12359012286709E-07
     -3.06853915915053E-07  -3.17816157458234E-15   0.00000000000000E+00   0.00000000000000E+00   0.00000000000000E+00
      3.90493833625181E-09  -1.53132410056250E-19  -2.27967843962284E-07  -2.24062905626185E-07  -3.17839070770668E-15
      6.00000000000000E-13
      0.00000000000000E+00   0.00000000000000E+00   0.00000000000000E+00   1.69542498333937E-09  -1.53131216952224E-19
     -1.30145929160015E-07  -1.28450504176829E-07  -3.17914550966451E-15   2.00000000000000E+02   2.00000000000000E+02
      0.00000000000000E+00  -1.65670552459424E-06   1.71872014422227E-06   1.38370934399801E-13   6.20147579989654E-08
      1.68179758827992E-14   0.00000000000000E+00   0.00000000000000E+00   0.00000000000000E+00  -3.91009689362639E-10
     -1.53722229547543E-19   2.44136421916314E-08   2.40226325021151E-08  -3.20734087055702E-15   0.00000000000000E+00
      0.00000000000000E+00   0.00000000000000E+00  -6.42409175607619E-09  -1.62890037093475E-11  -3.87092717186235E-07
     -3.93533097946021E-07   7.04867301171628E-15   0.00000000000000E+00   0.00000000000000E+00   0.00000000000000E+00
     -8.96459795529060E-08  -7.76099077135756E-20   6.29860084522934E-06   6.20895486567636E-06  -1.59056490677391E-15
      0.00000000000000E+00   0.00000000000000E+00   0.00000000000000E+00   6.33167517460792E-08  -1.53763857363379E-19
     -4.42308755156427E-06  -4.35977079981835E-06  -3.17703735453768E-15   0.00000000000000E+00   0.00000000000000E+00
      0.00000000000000E+00   1.22904652845462E-08  -1.53731700713937E-19  -7.70291257593611E-07  -7.58000792309219E-07
     -3.17791242919481E-15   0.00000000000000E+00   0.00000000000000E+00   0.00000000000000E+00   5.10652325098805E-09
     -1.53726741485498E-19  -3.22762569575801E-07  -3.17656046324967E-07  -3.17806178490938E-15   0.00000000000000E+00
      0.00000000000000E+00   0.00000000000000E+00   3.07998126147944E-09  -1.89246609397606E-19  -1.97239283992377E-07
     -1.94159302731087E-07  -3.17818098956398E-15   0.00000000000000E+00   0.00000000000000E+00   0.00000000000000E+00
      2.26925950715390E-09  -1.53131783134271E-19  -1.45690972345273E-07  -1.43421712838272E-07  -3.17840504931419E-15
      7.00000000000000E-13
      0.00000000000000E+00   0.00000000000000E+00   0.00000000000000E+00   1.10893956359808E-09  -1.53130904812936E-19
     -9.00389452116868E-08  -8.89300056482418E-08  -3.17915440232034E-15   2.00000000000000E+02   2.00000000000000E+02
      0.00000000000000E+00  -1.30291661686729E-06   1.35815769685630E-06   1.37178257422200E-13   5.52412171672674E-08
      1.68179814051966E-14   0.00000000000000E+00   0.00000000000000E+00   0.00000000000000E+00  -2.44369309689289E-10
     -1.53722344999434E-19   1.20683367048718E-08   1.18239673950288E-08  -3.20733968709212E-15   0.00000000000000E+00
      0.00000000000000E+00   0.00000000000000E+00  -6.67898729161129E-09  -1.63004344226894E-11  -2.47328822843753E-07
     -2.54024110569787E-07   7.04864760183885E-15   0.00000000000000E+00   0.00000000000000E+00   0.00000000000000E+00
     -5.54565507422811E-08  -7.76269094914075E-20   4.10812241691876E-06   4.05266586617640E-06  -1.59015966207886E-15
      0.00000000000000E+00   0.00000000000000E+00   0.00000000000000E+00   3.99095950152355E-08  -1.53751576243519E-19
     -2.89465998005950E-06  -2.85475038504442E-06  -3.17732280767170E-15   0.00000000000000E+00   0.00000000000000E+00
      0.00000000000000E+00   7.20720620808984E-09  -1.53729576781460E-19  -4.99006619890486E-07  -4.91799413682550E-07
     -3.17796160477514E-15   0.00000000000000E+00   0.00000000000000E+00   0.00000000000000E+00   3.01376862760239E-09
     -1.53725889768910E-19  -2.11552660561905E-07  -2.08538891934456E-07  -3.17808263696542E-15   0.00000000000000E+00
      0.00000000000000E+00   0.00000000000000E+00   1.82861435349838E-09  -1.89246087964742E-19  -1.29047965125886E-07
     -1.27219350772577E-07  -3.17819371051544E-15   0.00000000000000E+00   0.00000000000000E+00   0.00000000000000E+00
      1.37864670859120E-09  -1.53131400701959E-19  -9.58475397906129E-08  -9.44688930821749E-08  -3.17841449561645E-15
      8.00000000000000E-13
      0.00000000000000E+00   0.00000000000000E+00   0.00000000000000E+00   7.39913853062003E-10  -1.53130692198422E-19
     -6.31826452926480E-08  -6.24427314397391E-08  -3.17916064623457E-15   2.00000000000000E+02   2.00000000000000E+02
      0.00000000000000E+00  -1.06598290866816E-06   1.11363971922175E-06   1.36158855212444E-13   4.76569467124431E-08
      1.68179861691668E-14   0.00000000000000E+00   0.00000000000000E+00   0.00000000000000E+00  -1.40195111802328E-10
     -1.53722406709974E-19   4.86027799348722E-09   4.72008288153117E-09  -3.20733921398930E-15   0.00000000000000E+00
      0.00000000000000E+00   0.00000000000000E+00  -6.45324144842181E-09  -1.63111794818573E-11  -1.61099315506942E-07
     -1.67568868134846E-07   7.04863083727813E-15   0.00000000000000E+00   0.00000000000000E+00   0.00000000000000E+00
     -3.48467388548890E-08  -7.76372537574568E-20   2.73311099510656E-06   2.69826425625159E-06  -1.58988985813351E-15
      0.00000000000000E+00   0.00000000000000E+00   0.00000000000000E+00   2.52953081389703E-08  -1.53743823250032E-19
     -1.92546222293556E-06  -1.90016691479674E-06  -3.17751280188359E-15   0.00000000000000E+00   0.00000000000000E+00
      0.00000000000000E+00   4.39474573262189E-09  -1.53728285873586E-19  -3.33786232535859E-07  -3.29391486803391E-07
     -3.17799453946411E-15   0.00000000000000E+00   0.00000000000000E+00   0.00000000000000E+00   1.85788588603514E-09
     -1.53725363874227E-19  -1.43111327312121E-07  -1.41253441426240E-07  -3.17809676043438E-15   0.00000000000000E+00
      0.00000000000000E+00   0.00000000000000E+00   1.12792908116900E-09  -1.89245764802393E-19  -8.70464804578670E-08
     -8.59185513768873E-08  -3.17820230136291E-15   0.00000000000000E+00   0.00000000000000E+00   0.00000000000000E+00
      8.61121402802758E-10  -1.53131158499587E-19  -6.47604133435016E-08  -6.38992919408520E-08  -3.17842088494254E-15
      9.00000000000000E-13
      0.00000000000000E+00   0.00000000000000E+00   0.00000000000000E+00   4.99040182213703E-10  -1.53130545202036E-19
     -4.50070494962058E-08  -4.45080093141453E-08  -3.17916509666646E-15   2.00000000000000E+02   2.00000000000000E+02
      0.00000000000000E+00  -8.97534817877642E-07   9.38871932282102E-07   1.35265848909730E-13   4.13372496703090E-08
      1.68179903011674E-14   0.00000000000000E+00   0.00000000000000E+00   0.00000000000000E+00  -7.56357422382563E-11
     -1.53722436537377E-19   8.16157701068261E-10   7.40521958676283E-10  -3.20733913882260E-15   0.00000000000000E+00
      0.00000000000000E+00   0.00000000000000E+00  -6.00818585318149E-09  -1.63211822272167E-11  -1.07259503358753E-07
     -1.13284010394162E-07   7.04861950114382E-15   0.00000000000000E+00   0.00000000000000E+00   0.00000000000000E+00
     -2.21962762323890E-08  -7.76435533365168E-20   1.85786073816757E-06   1.83566446193510E-06  -1.58970631465676E-15
      0.00000000000000E+00   0.00000000000000E+00   0.00000000000000E+00   1.61586183494497E-08  -1.53738894862417E-19
     -1.30623702513257E-06  -1.29007840678328E-06  -3.17764178685401E-15   0.00000000000000E+00   0.00000000000000E+00
      0.00000000000000E+00   2.76337731792262E-09  -1.53727475901215E-19  -2.29988369029961E-07  -2.27224991712192E-07
     -3.17801725743405E-15   0.00000000000000E+00   0.00000000000000E+00   0.00000000000000E+00   1.18066208787752E-09
     -1.53725027876073E-19  -9.96538984263903E-08  -9.84732363386665E-08  -3.17810660585304E-15   0.00000000000000E+00
      0.00000000000000E+00   0.00000000000000E+00   7.14395390468109E-10  -1.89245559173099E-19  -6.04676997692773E-08
     -5.97533043789984E-08  -3.17820827566870E-15   0.00000000000000E+00   0.00000000000000E+00   0.00000000000000E+00
      5.48655325016200E-10  -1.53131002266704E-19  -4.49689300378067E-08  -4.44202747129436E-08  -3.17842532635564E-15
      1.00000000000000E-12
      0.00000000000000E+00   0.00000000000000E+00   0.00000000000000E+00   3.39158745901542E-10  -1.53130442790000E-19
     -3.26172269615697E-08  -3.22780682158213E-08  -3.17916832409685E-15   2.00000000000000E+02   2.00000000000000E+02
      0.00000000000000E+00  -7.72631435341593E-07   8.09041470717317E-07   1.34466153187198E-13   3.64101698418775E-08
      1.68179939404600E-14   0.00000000000000E+00   0.00000000000000E+00   0.00000000000000E+00  -3.80867239263520E-11
     -1.53722448991225E-19  -1.36698672644889E-09  -1.40507345052896E-09  -3.20733927819966E-15   0.00000000000000E+00
      0.00000000000000E+00   0.00000000000000E+00  -5.48945627574791E-09  -1.63304690825610E-11  -7.32183476844514E-08
     -7.87241344292819E-08   7.04861162103499E-15   0.00000000000000E+00   0.00000000000000E+00   0.00000000000000E+00
     -1.43258452388693E-08  -7.76473663884333E-20   1.29323518989910E-06   1.27890934466015E-06  -1.58957844711576E-15
      0.00000000000000E+00   0.00000000000000E+00   0.00000000000000E+00   1.04245774854625E-08  -1.53735734928286E-19
     -9.06752349389500E-07  -8.96327771904192E-07  -3.17773139649054E-15   0.00000000000000E+00   0.00000000000000E+00
      0.00000000000000E+00   1.78153606925940E-09  -1.53726952889546E-19  -1.63106603232249E-07  -1.61325067163143E-07
     -3.17803338536119E-15   0.00000000000000E+00   0.00000000000000E+00   0.00000000000000E+00   7.67705524181709E-10
     -1.53724807058084E-19  -7.14039779344627E-08  -7.06362724104347E-08  -3.17811366755355E-15   0.00000000000000E+00
      0.00000000000000E+00   0.00000000000000E+00   4.61987505159711E-10  -1.89245424652632E-19  -4.32895087087048E-08
     -4.28275212037343E-08  -3.17821255738378E-15   0.00000000000000E+00   0.00000000000000E+00   0.00000000000000E+00
      3.55431949566706E-10  -1.53130898886791E-19  -3.21510376358594E-08  -3.17956056864458E-08  -3.17842850529364E-15
      1.10000000000000E-12
      0.00000000000000E+00   0.00000000000000E+00   0.00000000000000E+00   2.32191224703895E-10  -1.53130370835971E-19
     -2.41134179875121E-08  -2.38812267629614E-08  -3.17917071183761E-15   2.00000000000000E+02   2.00000000000000E+02
      0.00000000000000E+00  -6.76974286028943E-07   7.09555729508503E-07   1.33740051457718E-13   3.25815772196119E-08
      1.68179971968934E-14   0.00000000000000E+00   0.00000000000000E+00   0.00000000000000E+00  -1.70370732053295E-11
     -1.53722451652297E-19  -2.48385967200713E-09  -2.50089674536618E-09  -3.20733952714610E-15   0.00000000000000E+00
      0.00000000000000E+00   0.00000000000000E+00  -4.97184809948091E-09  -1.63391016483141E-11  -5.13942453355683E-08
     -5.63824325366976E-08   7.04860597519821E-15   0.00000000000000E+00   0.00000000000000E+00   0.00000000000000E+00
     -9.37392896246384E-09  -7.76496379499692E-20   9.23926093048468E-07   9.14552164085927E-07  -1.58948701567302E-15
      0.00000000000000E+00   0.00000000000000E+00   0.00000000000000E+00   6.80576604667164E-09  -1.53733687607519E-19
     -6.45974762248816E-07  -6.39168996202298E-07  -3.17779529005886E-15   0.00000000000000E+00   0.00000000000000E+00
      0.00000000000000E+00   1.17352799975478E-09  -1.53726608487386E-19  -1.19062466884192E-07  -1.17888938884591E-07
     -3.17804516963797E-15   0.00000000000000E+00   0.00000000000000E+00   0.00000000000000E+00   5.08938418122961E-10
     -1.53724658608631E-19  -5.26732070050455E-08  -5.21642685870763E-08  -3.17811888203736E-15   0.00000000000000E+00
      0.00000000000000E+00   0.00000000000000E+00   3.04412456374609E-10  -1.89245334728199E-19  -3.19744308458027E-08
     -3.16700183896173E-08  -3.17821572333933E-15   0.00000000000000E+00   0.00000000000000E+00   0.00000000000000E+00
      2.34043835371328E-10  -1.53130829127546E-19  -2.37110071884867E-08  -2.34769633532685E-08  -3.17843085236129E-15
      1.20000000000000E-12
      0.00000000000000E+00   0.00000000000000E+00   0.00000000000000E+00   1.60301266191399E-10  -1.53130319766216E-19
     -1.82303439022695E-08  -1.80700426362312E-08  -3.17917251845579E-15   2.00000000000000E+02   2.00000000000000E+02
      0.00000000000000E+00  -6.01738637230145E-07   6.31284572543558E-07   1.33073717870617E-13   2.95460683871305E-08
      1.68180001497758E-14   0.00000000000000E+00   0.00000000000000E+00   0.00000000000000E+00  -5.61955476381526E-12
     -1.53722449183845E-19  -3.00115654173594E-09  -3.00677609665348E-09  -3.20733982666946E-15   0.00000000000000E+00
      0.00000000000000E+00   0.00000000000000E+00  -4.49020547278761E-09  -1.63471519958275E-11  -3.71806530777063E-08
     -4.16872057024897E-08   7.04860179902898E-15   0.00000000000000E+00   0.00000000000000E+00   0.00000000000000E+00
     -6.22595888270103E-09  -7.76509467934930E-20   6.78726104282311E-07   6.72500145399532E-07  -1.58941978978173E-15
      0.00000000000000E+00   0.00000000000000E+00   0.00000000000000E+00   4.50574204541390E-09  -1.53732344141843E-19
     -4.73357714677455E-07  -4.68851972632195E-07  -3.17784215178820E-15   0.00000000000000E+00   0.00000000000000E+00
      0.00000000000000E+00   7.88531673685448E-10  -1.53726377026968E-19  -8.94697958717164E-08  -8.86812641981847E-08
     -3.17805403311868E-15   0.00000000000000E+00   0.00000000000000E+00   0.00000000000000E+00   3.43675567182914E-10
     -1.53724557448408E-19  -4.00204603999321E-08  -3.96767848329029E-08  -3.17812284776026E-15   0.00000000000000E+00
      0.00000000000000E+00   0.00000000000000E+00   2.04408695417756E-10  -1.89245273242436E-19  -2.43782708067259E-08
     -2.41738621114974E-08  -3.17821813967214E-15   0.00000000000000E+00   0.00000000000000E+00   0.00000000000000E+00
      1.56788844639412E-10  -1.53130781036382E-19  -1.80550943313197E-08  -1.78983054868334E-08  -3.17843264155848E-15
      1.30000000000000E-12
      0.00000000000000E+00   0.00000000000000E+00   0.00000000000000E+00   1.11799730028517E-10  -1.53130283062619E-19
     -1.41205903711472E-08  -1.40087906412718E-08  -3.17917391894558E-15   2.00000000000000E+02   2.00000000000000E+02
      0.00000000000000E+00  -5.41195779762182E-07   5.68268663465195E-07   1.32455444990370E-13   2.70730161584583E-08
      1.68180028553530E-14   0.00000000000000E+00   0.00000000000000E+00   0.00000000000000E+00   3.67314655234293E-13
     -1.53722444201771E-19  -3.18750236044250E-09  -3.18713504594099E-09  -3.20734014421912E-15   0.00000000000000E+00
      0.00000000000000E+00   0.00000000000000E+00  -4.05774597236645E-09  -1.63546908684496E-11  -2.77563097476375E-08
     -3.18304104108724E-08   7.04859860871335E-15   0.00000000000000E+00   0.00000000000000E+00   0.00000000000000E+00
     -4.20422674067508E-09  -7.76516510019870E-20   5.13206050807093E-07   5.09001824066340E-07  -1.58936891404976E-15
      0.00000000000000E+00   0.00000000000000E+00   0.00000000000000E+00   3.03169093169151E-09  -1.53731450690268E-19
     -3.57238081901290E-07  -3.54206390969752E-07  -3.17787754886052E-15   0.00000000000000E+00   0.00000000000000E+00
      0.00000000000000E+00   5.40308613535155E-10  -1.53726217462378E-19  -6.91916766612169E-08  -6.86513680478355E-08
     -3.17806089358748E-15   0.00000000000000E+00   0.00000000000000E+00   0.00000000000000E+00   2.36497139810736E-10
     -1.53724486773198E-19  -3.13091618041409E-08  -3.10726646644839E-08  -3.17812595306126E-15   0.00000000000000E+00
      0.00000000000000E+00   0.00000000000000E+00   1.40053737315196E-10  -1.89245230175494E-19  -1.91745088445178E-08
     -1.90344551073918E-08  -3.17822004205864E-15   0.00000000000000E+00   0.00000000000000E+00   0.00000000000000E+00
      1.07071706430952E-10  -1.53130747103265E-19  -1.41906969360759E-08  -1.40836252297980E-08  -3.17843404928396E-15
      1.40000000000000E-12