DF-ISE text

Info {
  version   = 1.0
  type      = xyplot
  datasets  = [
    "time"
    "PIX7 OuterVoltage" "PIX7 InnerVoltage" "PIX7 QuasiFermiPotential" "PIX7 DisplacementCurrent" "PIX7 eCurrent"
    "PIX7 hCurrent" "PIX7 TotalCurrent" "PIX7 Charge" "BACK OuterVoltage" "BACK InnerVoltage"
    "BACK QuasiFermiPotential" "BACK DisplacementCurrent" "BACK eCurrent" "BACK hCurrent" "BACK TotalCurrent"
    "BACK Charge" "PIX8 OuterVoltage" "PIX8 InnerVoltage" "PIX8 QuasiFermiPotential" "PIX8 DisplacementCurrent"
    "PIX8 eCurrent" "PIX8 hCurrent" "PIX8 TotalCurrent" "PIX8 Charge" "PIX9 OuterVoltage"
    "PIX9 InnerVoltage" "PIX9 QuasiFermiPotential" "PIX9 DisplacementCurrent" "PIX9 eCurrent" "PIX9 hCurrent"
    "PIX9 TotalCurrent" "PIX9 Charge" "PIX1 OuterVoltage" "PIX1 InnerVoltage" "PIX1 QuasiFermiPotential"
    "PIX1 DisplacementCurrent" "PIX1 eCurrent" "PIX1 hCurrent" "PIX1 TotalCurrent" "PIX1 Charge"
    "PIX2 OuterVoltage" "PIX2 InnerVoltage" "PIX2 QuasiFermiPotential" "PIX2 DisplacementCurrent" "PIX2 eCurrent"
    "PIX2 hCurrent" "PIX2 TotalCurrent" "PIX2 Charge" "PIX3 OuterVoltage" "PIX3 InnerVoltage"
    "PIX3 QuasiFermiPotential" "PIX3 DisplacementCurrent" "PIX3 eCurrent" "PIX3 hCurrent" "PIX3 TotalCurrent"
    "PIX3 Charge" "PIX4 OuterVoltage" "PIX4 InnerVoltage" "PIX4 QuasiFermiPotential" "PIX4 DisplacementCurrent"
    "PIX4 eCurrent" "PIX4 hCurrent" "PIX4 TotalCurrent" "PIX4 Charge" "PIX5 OuterVoltage"
    "PIX5 InnerVoltage" "PIX5 QuasiFermiPotential" "PIX5 DisplacementCurrent" "PIX5 eCurrent" "PIX5 hCurrent"
    "PIX5 TotalCurrent" "PIX5 Charge" "PIX6 OuterVoltage" "PIX6 InnerVoltage" "PIX6 QuasiFermiPotential"
    "PIX6 DisplacementCurrent" "PIX6 eCurrent" "PIX6 hCurrent" "PIX6 TotalCurrent" "PIX6 Charge" ]
  functions = [
    Time
    OuterVoltage InnerVoltage QuasiFermiPotential DisplacementCurrent eCurrent
    hCurrent TotalCurrent Charge OuterVoltage InnerVoltage
    QuasiFermiPotential DisplacementCurrent eCurrent hCurrent TotalCurrent
    Charge OuterVoltage InnerVoltage QuasiFermiPotential DisplacementCurrent
    eCurrent hCurrent TotalCurrent Charge OuterVoltage
    InnerVoltage QuasiFermiPotential DisplacementCurrent eCurrent hCurrent
    TotalCurrent Charge OuterVoltage InnerVoltage QuasiFermiPotential
    DisplacementCurrent eCurrent hCurrent TotalCurrent Charge
    OuterVoltage InnerVoltage QuasiFermiPotential DisplacementCurrent eCurrent
    hCurrent TotalCurrent Charge OuterVoltage InnerVoltage
    QuasiFermiPotential DisplacementCurrent eCurrent hCurrent TotalCurrent
    Charge OuterVoltage InnerVoltage QuasiFermiPotential DisplacementCurrent
    eCurrent hCurrent TotalCurrent Charge OuterVoltage
    InnerVoltage QuasiFermiPotential DisplacementCurrent eCurrent hCurrent
    TotalCurrent Charge OuterVoltage InnerVoltage QuasiFermiPotential
    DisplacementCurrent eCurrent hCurrent TotalCurrent Charge ]
}

Data {
      0.00000000000000E+00
      0.00000000000000E+00   0.00000000000000E+00   0.00000000000000E+00  -7.41639767642022E-30  -1.53131048027052E-19
     -4.31859537534063E-15  -4.31874850638866E-15  -3.17924148555976E-15   2.00000000000000E+02   2.00000000000000E+02
      0.00000000000000E+00   4.75915183161003E-25   1.72345153685824E-11   9.18008895593748E-15   1.72436954575388E-11
      1.68177494282920E-14   0.00000000000000E+00   0.00000000000000E+00   0.00000000000000E+00  -1.07125744214959E-29
     -1.53722664892220E-19  -4.81527078308231E-15  -4.81542450574721E-15  -3.20780957579879E-15   0.00000000000000E+00
      0.00000000000000E+00   0.00000000000000E+00   3.37528498695747E-27  -1.72011077641097E-11  -9.39255630077173E-15
     -1.72105003204104E-11   7.07088673081416E-15   0.00000000000000E+00   0.00000000000000E+00   0.00000000000000E+00
      2.88415465194120E-30  -7.62087392901926E-20  -2.46869454736120E-15  -2.46877075610049E-15  -1.61914747595537E-15
      0.00000000000000E+00   0.00000000000000E+00   0.00000000000000E+00  -1.64808837253783E-30  -1.53788914581493E-19
     -4.32533135810606E-15  -4.32548514702064E-15  -3.17225982985196E-15   0.00000000000000E+00   0.00000000000000E+00
      0.00000000000000E+00  -1.07125744214959E-29  -1.53740597260605E-19  -4.31529881004926E-15  -4.31545255064653E-15
     -3.17675365052508E-15   0.00000000000000E+00   0.00000000000000E+00   0.00000000000000E+00  -8.24044186268913E-30
     -1.53731158912797E-19  -4.31641513268356E-15  -4.31656886384248E-15  -3.17760403665464E-15   0.00000000000000E+00
      0.00000000000000E+00   0.00000000000000E+00  -1.31847069803026E-29  -1.89248307215442E-19  -4.31692432986247E-15
     -4.31711357816970E-15  -3.17799024863341E-15   0.00000000000000E+00   0.00000000000000E+00   0.00000000000000E+00
     -1.23606627940337E-29  -1.53132060281153E-19  -4.31742008837359E-15  -4.31757322043388E-15  -3.17836422924232E-15
      1.00000000000000E-13
      0.00000000000000E+00   0.00000000000000E+00   0.00000000000000E+00   3.80580059601500E-07  -1.53108210978766E-19
      2.48013766105017E-06   2.86071772065151E-06  -3.17895541378747E-15   2.00000000000000E+02   2.00000000000000E+02
      0.00000000000000E+00  -1.97698174897072E-04   2.00785589373121E-04   1.58177793662759E-13   3.08741463422737E-06
      1.68180581680310E-14   0.00000000000000E+00   0.00000000000000E+00   0.00000000000000E+00   2.15220038594743E-07
     -1.53686128376270E-19   4.21947697046565E-06   4.43469700906024E-06  -3.20736610579078E-15   0.00000000000000E+00
      0.00000000000000E+00   0.00000000000000E+00  -2.11310365482985E-04  -1.62031570160501E-11  -4.33809058859093E-06
     -2.15648472274733E-04   7.04932188854836E-15   0.00000000000000E+00   0.00000000000000E+00   0.00000000000000E+00
     -3.12772711779092E-05  -7.58465181317605E-20   2.16809525853684E-04   1.85532254675774E-04  -1.60059425858110E-15
      0.00000000000000E+00   0.00000000000000E+00   0.00000000000000E+00   1.38631135161262E-05  -1.53699974170598E-19
      2.63623243022396E-06   1.64993459463500E-05  -3.17060989245596E-15   0.00000000000000E+00   0.00000000000000E+00
      0.00000000000000E+00   3.00105467524027E-06  -1.53722763416342E-19  -1.23576219604264E-07   2.87747845563585E-06
     -3.17646590166975E-15   0.00000000000000E+00   0.00000000000000E+00   0.00000000000000E+00   1.30884559688324E-06
     -1.53718846724032E-19   3.28300607642179E-07   1.63714620452527E-06  -3.17744032158950E-15   0.00000000000000E+00
      0.00000000000000E+00   0.00000000000000E+00   7.51930214937842E-07  -1.89233705662874E-19   1.12697912913922E-06
      1.87890934407687E-06  -3.17780235749945E-15   0.00000000000000E+00   0.00000000000000E+00   0.00000000000000E+00
      5.03038683263193E-07  -1.53115032084661E-19   1.68120075325701E-06   2.18423943652005E-06  -3.17814580520535E-15
      2.00000000000000E-13
      0.00000000000000E+00   0.00000000000000E+00   0.00000000000000E+00  -7.77126656339857E-08  -1.53135469877492E-19
     -6.98577090246144E-07  -7.76289755880283E-07  -3.17903304265276E-15   2.00000000000000E+02   2.00000000000000E+02
      0.00000000000000E+00  -1.91587819943152E-05   1.77359594271338E-05   1.48491616806632E-13  -1.42282241868978E-06
      1.68179158840648E-14   0.00000000000000E+00   0.00000000000000E+00   0.00000000000000E+00  -1.01088631934396E-07
     -1.53720447261020E-19   1.84593722668625E-07   8.35050907340752E-08  -3.20735775467933E-15   0.00000000000000E+00
      0.00000000000000E+00   0.00000000000000E+00  -4.64289427894367E-08  -1.62404461423676E-11  -2.74408121233436E-06
     -2.79052639556994E-06   7.04904283640652E-15   0.00000000000000E+00   0.00000000000000E+00   0.00000000000000E+00
     -4.44355230972876E-06  -7.72683161262138E-20   4.80825807249975E-05   4.36390284152687E-05  -1.59623036921341E-15
      0.00000000000000E+00   0.00000000000000E+00   0.00000000000000E+00  -7.08405407395837E-07  -1.53934290979368E-19
     -2.53044683506090E-05  -2.60128737580050E-05  -3.17321116992768E-15   0.00000000000000E+00   0.00000000000000E+00
      0.00000000000000E+00  -1.58237572010376E-07  -1.53778778262021E-19  -6.64563271151516E-06  -6.80387028352569E-06
     -3.17714628637218E-15   0.00000000000000E+00   0.00000000000000E+00   0.00000000000000E+00  -7.59281558507985E-08
     -1.53746956597169E-19  -2.89408396137404E-06  -2.97001211722499E-06  -3.17773732181478E-15   0.00000000000000E+00
      0.00000000000000E+00   0.00000000000000E+00  -6.64624454915168E-08  -1.89258492509115E-19  -1.71970698330193E-06
     -1.78616942879364E-06  -3.17798097394416E-15   0.00000000000000E+00   0.00000000000000E+00   0.00000000000000E+00
     -6.66738265982639E-08  -1.53139051529489E-19  -1.09329552164094E-06  -1.15996934823936E-06  -3.17826180186698E-15
      3.00000000000000E-13
      0.00000000000000E+00   0.00000000000000E+00   0.00000000000000E+00   7.27647533213212E-09  -1.53133527612237E-19
     -4.37779751549116E-07  -4.30503276217137E-07  -3.17907609278837E-15   2.00000000000000E+02   2.00000000000000E+02
      0.00000000000000E+00  -6.12621793387174E-06   5.73193650600280E-06   1.44217326860366E-13  -3.94281283651616E-07
      1.68178764542120E-14   0.00000000000000E+00   0.00000000000000E+00   0.00000000000000E+00  -8.44188788836171E-10
     -1.53721222425327E-19   1.18872032364695E-07   1.18027843575705E-07  -3.20734595111109E-15   0.00000000000000E+00
      0.00000000000000E+00   0.00000000000000E+00  -2.66935105187791E-09  -1.62524801010400E-11  -1.63559094706895E-06
     -1.63827655060093E-06   7.04887900601366E-15   0.00000000000000E+00   0.00000000000000E+00   0.00000000000000E+00
     -5.56389249561881E-07  -7.74513474169671E-20   2.59019652116673E-05   2.53455759621054E-05  -1.59369582831600E-15
      0.00000000000000E+00   0.00000000000000E+00   0.00000000000000E+00   2.28930891026724E-07  -1.53863838112468E-19
     -1.67326063777075E-05  -1.65036754866809E-05  -3.17486152284438E-15   0.00000000000000E+00   0.00000000000000E+00
      0.00000000000000E+00   8.08996163831149E-08  -1.53754390814258E-19  -3.62596488687934E-06  -3.54506527049638E-06
     -3.17750078975228E-15   0.00000000000000E+00   0.00000000000000E+00   0.00000000000000E+00   3.75145776682184E-08
     -1.53735946162589E-19  -1.50812766026655E-06  -1.47061308259849E-06  -3.17788438179897E-15   0.00000000000000E+00
      0.00000000000000E+00   0.00000000000000E+00   2.17993032879786E-08  -1.89252049336081E-19  -9.01647977029922E-07
     -8.79848673742132E-07  -3.17806895812254E-15   0.00000000000000E+00   0.00000000000000E+00   0.00000000000000E+00
      1.30186016056155E-08  -1.53135354936356E-19  -6.14358783197739E-07  -6.01340181592276E-07  -3.17832193549204E-15
      4.00000000000000E-13
      0.00000000000000E+00   0.00000000000000E+00   0.00000000000000E+00   4.51573165089893E-09  -1.53132302870702E-19
     -2.74473010154831E-07  -2.69957278504086E-07  -3.17910308826597E-15   2.00000000000000E+02   2.00000000000000E+02
      0.00000000000000E+00  -3.34296834149858E-06   3.22692909235940E-06   1.41616021418370E-13  -1.16039107523157E-07
      1.68178648485769E-14   0.00000000000000E+00   0.00000000000000E+00   0.00000000000000E+00  -4.61458859912763E-10
     -1.53721621182206E-19   8.61526482947881E-08   8.56911894347216E-08  -3.20733738109214E-15   0.00000000000000E+00
      0.00000000000000E+00   0.00000000000000E+00  -3.07932121804738E-09  -1.62636533998337E-11  -9.91701898462351E-07
     -9.94797483333798E-07   7.04877952139693E-15   0.00000000000000E+00   0.00000000000000E+00   0.00000000000000E+00
     -2.55069314698845E-07  -7.75343449924265E-20   1.57263776839923E-05   1.54713083692934E-05  -1.59214871624254E-15
      0.00000000000000E+00   0.00000000000000E+00   0.00000000000000E+00   1.59519498176367E-07  -1.53814432527168E-19
     -1.06731616028057E-05  -1.05136421046295E-05  -3.17591286933377E-15   0.00000000000000E+00   0.00000000000000E+00
      0.00000000000000E+00   4.19180162980505E-08  -1.53741772765140E-19  -2.04652062669507E-06  -2.00460261039718E-06
     -3.17770124634923E-15   0.00000000000000E+00   0.00000000000000E+00   0.00000000000000E+00   1.80583962374818E-08
     -1.53730690564730E-19  -8.36264790458874E-07  -8.18206394221546E-07  -3.17796620090069E-15   0.00000000000000E+00
      0.00000000000000E+00   0.00000000000000E+00   1.06024355070892E-08  -1.89248944420002E-19  -5.02432057496092E-07
     -4.91829621989192E-07  -3.17811814027352E-15   0.00000000000000E+00   0.00000000000000E+00   0.00000000000000E+00
      7.06217856516996E-09  -1.53133369259086E-19  -3.54987136819820E-07  -3.47924958254803E-07  -3.17835672751595E-15
      5.00000000000000E-13
      0.00000000000000E+00   0.00000000000000E+00   0.00000000000000E+00   2.60800769595266E-09  -1.53131599313971E-19
     -1.80700856131726E-07  -1.78092848435927E-07  -3.17912089725989E-15   2.00000000000000E+02   2.00000000000000E+02
      0.00000000000000E+00  -2.23743397900902E-06   2.20418860006228E-06   1.39757990313336E-13  -3.32452391887589E-08
      1.68178615223285E-14   0.00000000000000E+00   0.00000000000000E+00   0.00000000000000E+00  -6.08574442124884E-10
     -1.53721951035271E-19   5.44775408622487E-08   5.38689664199701E-08  -3.20733199321919E-15   0.00000000000000E+00
      0.00000000000000E+00   0.00000000000000E+00  -5.32639907732743E-09  -1.62754921598023E-11  -6.11698729618096E-07
     -6.17041404187583E-07   7.04871781106066E-15   0.00000000000000E+00   0.00000000000000E+00   0.00000000000000E+00
     -1.48070524242244E-07  -7.75817220108278E-20   9.85052210168925E-06   9.70245157744693E-06  -1.59117849124247E-15
      0.00000000000000E+00   0.00000000000000E+00   0.00000000000000E+00   1.00589053629778E-07  -1.53783308669920E-19
     -6.83345219541973E-06  -6.73286314179011E-06  -3.17658613592040E-15   0.00000000000000E+00   0.00000000000000E+00
      0.00000000000000E+00   2.19122263578009E-08  -1.53735234522525E-19  -1.21999969020607E-06  -1.19808746384843E-06
     -3.17782105110121E-15   0.00000000000000E+00   0.00000000000000E+00   0.00000000000000E+00   9.10516239824471E-09
     -1.53728084138056E-19  -4.98407628165038E-07  -4.89302465766947E-07  -3.17801512947221E-15   0.00000000000000E+00
      0.00000000000000E+00   0.00000000000000E+00   5.39354268965852E-09  -1.89247393216617E-19  -3.00279170352573E-07
     -2.94885627663103E-07  -3.17814762794616E-15   0.00000000000000E+00   0.00000000000000E+00   0.00000000000000E+00
      3.80293026867624E-09  -1.53132319624657E-19  -2.16605283211499E-07  -2.12802352942976E-07  -3.17837800722764E-15
      6.00000000000000E-13
      0.00000000000000E+00   0.00000000000000E+00   0.00000000000000E+00   1.63495382573952E-09  -1.53131151939709E-19
     -1.21902841641947E-07  -1.20267887816361E-07  -3.17913292372949E-15   2.00000000000000E+02   2.00000000000000E+02
      0.00000000000000E+00  -1.65772416777418E-06   1.64979471923745E-06   1.38308062352109E-13  -7.92931022866274E-09
      1.68178607276731E-14   0.00000000000000E+00   0.00000000000000E+00   0.00000000000000E+00  -4.49160958889496E-10
     -1.53722167108480E-19   3.23241009700216E-08   3.18749400109783E-08  -3.20732880469733E-15   0.00000000000000E+00
      0.00000000000000E+00   0.00000000000000E+00  -6.44569187776291E-09  -1.62873637225693E-11  -3.83429359257479E-07
     -3.89891338498965E-07   7.04867881494393E-15   0.00000000000000E+00   0.00000000000000E+00   0.00000000000000E+00
     -8.96915790729929E-08  -7.76098823840534E-20   6.30189203444265E-06   6.21220045536958E-06  -1.59055729234656E-15
      0.00000000000000E+00   0.00000000000000E+00   0.00000000000000E+00   6.32286598906079E-08  -1.53763790603085E-19
     -4.41454148151954E-06  -4.35131282162908E-06  -3.17702124616712E-15   0.00000000000000E+00   0.00000000000000E+00
      0.00000000000000E+00   1.22079274657884E-08  -1.53731619262783E-19  -7.59949529703974E-07  -7.47741602238339E-07
     -3.17789582105181E-15   0.00000000000000E+00   0.00000000000000E+00   0.00000000000000E+00   5.02968834516387E-09
     -1.53726660066371E-19  -3.12442897116034E-07  -3.07413208771024E-07  -3.17804586902794E-15   0.00000000000000E+00
      0.00000000000000E+00   0.00000000000000E+00   3.00988178073750E-09  -1.89246535612603E-19  -1.87877670082258E-07
     -1.84867788301710E-07  -3.17816611378311E-15   0.00000000000000E+00   0.00000000000000E+00   0.00000000000000E+00
      2.20400973683546E-09  -1.53131713480892E-19  -1.36855447624037E-07  -1.34651437887355E-07  -3.17839147181368E-15
      7.00000000000000E-13
      0.00000000000000E+00   0.00000000000000E+00   0.00000000000000E+00   1.06903521587930E-09  -1.53130852458942E-19
     -8.33411249323652E-08  -8.22720897166391E-08  -3.17914115059957E-15   2.00000000000000E+02   2.00000000000000E+02
      0.00000000000000E+00  -1.30371833217857E-06   1.30347097318726E-06   1.37113431757718E-13  -2.47221877882306E-10
      1.68178607012266E-14   0.00000000000000E+00   0.00000000000000E+00   0.00000000000000E+00  -2.82781449659315E-10
     -1.53722294801993E-19   1.84885906599075E-08   1.82058092100945E-08  -3.20732698305250E-15   0.00000000000000E+00
      0.00000000000000E+00   0.00000000000000E+00  -6.68937159192667E-09  -1.62987747138125E-11  -2.44363504917897E-07
     -2.51069175284537E-07   7.04865370060943E-15   0.00000000000000E+00   0.00000000000000E+00   0.00000000000000E+00
     -5.54871131409249E-08  -7.76268939066934E-20   4.11022703753962E-06   4.05473992439861E-06  -1.59015184024805E-15
      0.00000000000000E+00   0.00000000000000E+00   0.00000000000000E+00   3.98511146283569E-08  -1.53751528031802E-19
     -2.88838188266866E-06  -2.84853076804046E-06  -3.17730607734751E-15   0.00000000000000E+00   0.00000000000000E+00
      0.00000000000000E+00   7.15297856829850E-09  -1.53729512570112E-19  -4.90768403270154E-07  -4.83615424702010E-07
     -3.17794417824110E-15   0.00000000000000E+00   0.00000000000000E+00   0.00000000000000E+00   2.96346693093726E-09
     -1.53725824349974E-19  -2.03184133271286E-07  -2.00220666340502E-07  -3.17806588926893E-15   0.00000000000000E+00
      0.00000000000000E+00   0.00000000000000E+00   1.78336952863725E-09  -1.89246028534291E-19  -1.21440731938562E-07
     -1.19657362410114E-07  -3.17817807854284E-15   0.00000000000000E+00   0.00000000000000E+00   0.00000000000000E+00
      1.33585275966801E-09  -1.53131344612300E-19  -8.86688780694745E-08  -8.73330253099596E-08  -3.17840020453551E-15
      8.00000000000000E-13
      0.00000000000000E+00   0.00000000000000E+00   0.00000000000000E+00   7.12815671706350E-10  -1.53130648399498E-19
     -5.75344821312848E-08  -5.68216664597316E-08  -3.17914683241344E-15   2.00000000000000E+02   2.00000000000000E+02
      0.00000000000000E+00  -1.06664853129750E-06   1.06863846938121E-06   1.36092658241009E-13   1.99007417637622E-09
      1.68178608985096E-14   0.00000000000000E+00   0.00000000000000E+00   0.00000000000000E+00  -1.66299557788285E-10
     -1.53722364780716E-19   1.02671210679636E-08   1.01008215100216E-08  -3.20732597188027E-15   0.00000000000000E+00
      0.00000000000000E+00   0.00000000000000E+00  -6.45692251715070E-09  -1.63095015974800E-11  -1.58601660422038E-07
     -1.65074892440786E-07   7.04863718549765E-15   0.00000000000000E+00   0.00000000000000E+00   0.00000000000000E+00
     -3.48679731066655E-08  -7.76372448966958E-20   2.73439091953758E-06   2.69952294643084E-06  -1.58988191043615E-15
      0.00000000000000E+00   0.00000000000000E+00   0.00000000000000E+00   2.52551261449780E-08  -1.53743787707522E-19
     -1.92074232899495E-06  -1.89548720285013E-06  -3.17749560359650E-15   0.00000000000000E+00   0.00000000000000E+00
      0.00000000000000E+00   4.35798114029660E-09  -1.53728233284744E-19  -3.26973692992157E-07  -3.22615711852014E-07
     -3.17797643536076E-15   0.00000000000000E+00   0.00000000000000E+00   0.00000000000000E+00   1.82394323942043E-09
     -1.53725309196978E-19  -1.36059088008908E-07  -1.34235144769642E-07  -3.17807931091607E-15   0.00000000000000E+00
      0.00000000000000E+00   0.00000000000000E+00   1.09776356375304E-09  -1.89245714897190E-19  -8.06085164707703E-08
     -7.95107529072065E-08  -3.17818602861787E-15   0.00000000000000E+00   0.00000000000000E+00   0.00000000000000E+00
      8.32224636805203E-10  -1.53131111531017E-19  -5.87006954187240E-08  -5.78684707820719E-08  -3.17840599078618E-15
      9.00000000000000E-13
      0.00000000000000E+00   0.00000000000000E+00   0.00000000000000E+00   4.80003586467008E-10  -1.53130507384068E-19
     -4.00959650154891E-08  -3.96159614291753E-08  -3.17915079364693E-15   2.00000000000000E+02   2.00000000000000E+02
      0.00000000000000E+00  -8.98109515652804E-07   9.00699133825947E-07   1.35197431268021E-13   2.58975337057408E-09
      1.68178611557606E-14   0.00000000000000E+00   0.00000000000000E+00   0.00000000000000E+00  -9.40140493501250E-11
     -1.53722401013092E-19   5.51104644245131E-09   5.41703239294747E-09  -3.20732542906716E-15   0.00000000000000E+00
      0.00000000000000E+00   0.00000000000000E+00  -6.00789114618220E-09  -1.63194875269781E-11  -1.05086798934021E-07
     -1.11111009567730E-07   7.04862606671669E-15   0.00000000000000E+00   0.00000000000000E+00   0.00000000000000E+00
     -2.22116731855439E-08  -7.76435493100190E-20   1.85854320648742E-06   1.83633153330180E-06  -1.58969830025479E-15
      0.00000000000000E+00   0.00000000000000E+00   0.00000000000000E+00   1.61299046456201E-08  -1.53738868314481E-19
     -1.30263020380786E-06  -1.28650029916239E-06  -3.17762423076462E-15   0.00000000000000E+00   0.00000000000000E+00
      0.00000000000000E+00   2.73754413372937E-09  -1.53727431443949E-19  -2.24177038678252E-07  -2.21439494544676E-07
     -3.17799857478945E-15   0.00000000000000E+00   0.00000000000000E+00   0.00000000000000E+00   1.15696571967395E-09
     -1.53724980671410E-19  -9.35206644942244E-08  -9.23636987747042E-08  -3.17808854538911E-15   0.00000000000000E+00
      0.00000000000000E+00   0.00000000000000E+00   6.93530084908453E-10  -1.89245515821218E-19  -5.48388274852777E-08
     -5.41452974005585E-08  -3.17819144213063E-15   0.00000000000000E+00   0.00000000000000E+00   0.00000000000000E+00
      5.28452040807606E-10  -1.53130961636303E-19  -3.96910102765289E-08  -3.91625582358744E-08  -3.17840990643456E-15
      1.00000000000000E-12
      0.00000000000000E+00   0.00000000000000E+00   0.00000000000000E+00   3.25300861578048E-10  -1.53130409309159E-19
     -2.82430248440272E-08  -2.79177239826023E-08  -3.17915358504948E-15   2.00000000000000E+02   2.00000000000000E+02
      0.00000000000000E+00  -7.73139789968107E-07   7.75875258791159E-07   1.34396856174206E-13   2.73560321990806E-09
      1.68178614275966E-14   0.00000000000000E+00   0.00000000000000E+00   0.00000000000000E+00  -5.14595072842949E-11
     -1.53722416822871E-19   2.80930952845995E-09   2.75785002102193E-09  -3.20732515215666E-15   0.00000000000000E+00
      0.00000000000000E+00   0.00000000000000E+00  -5.48675960316088E-09  -1.63287588151057E-11  -7.12808447441705E-08
     -7.67839331061465E-08   7.04861838068265E-15   0.00000000000000E+00   0.00000000000000E+00   0.00000000000000E+00
     -1.43375108668062E-08  -7.76473659949813E-20   1.29346531696723E-06   1.27912780610035E-06  -1.58957041087022E-15
      0.00000000000000E+00   0.00000000000000E+00   0.00000000000000E+00   1.04031829863009E-08  -1.53735715042101E-19
     -9.03974909245375E-07  -8.93571726259227E-07  -3.17771356480517E-15   0.00000000000000E+00   0.00000000000000E+00
      0.00000000000000E+00   1.76267914381346E-09  -1.53726914324865E-19  -1.58026605691888E-07  -1.56263926548228E-07
     -3.17801419661123E-15   0.00000000000000E+00   0.00000000000000E+00   0.00000000000000E+00   7.50500442963961E-10
     -1.53724765233009E-19  -6.59373443666819E-08  -6.51868439238717E-08  -3.17809506215520E-15   0.00000000000000E+00
      0.00000000000000E+00   0.00000000000000E+00   4.46923842932830E-10  -1.89245386006905E-19  -3.82443981151358E-08
     -3.77974742723922E-08  -3.17819522084893E-15   0.00000000000000E+00   0.00000000000000E+00   0.00000000000000E+00
      3.40782582216308E-10  -1.53130862835567E-19  -2.74404137658067E-08  -2.70996311837436E-08  -3.17841261578226E-15
      1.10000000000000E-12
      0.00000000000000E+00   0.00000000000000E+00   0.00000000000000E+00   2.21701281497740E-10  -1.53130340623106E-19
     -2.01454429644733E-08  -1.99237416831287E-08  -3.17915557704854E-15   2.00000000000000E+02   2.00000000000000E+02
      0.00000000000000E+00  -6.77431519584042E-07   6.80213644521327E-07   1.33670066637022E-13   2.78225860735184E-09
      1.68178617040980E-14   0.00000000000000E+00   0.00000000000000E+00   0.00000000000000E+00  -2.71643929079738E-11
     -1.53722422788431E-19   1.30019300884473E-09   1.27302861578303E-09  -3.20732502371549E-15   0.00000000000000E+00
      0.00000000000000E+00   0.00000000000000E+00  -4.96776058484611E-09  -1.63373769769919E-11  -4.96342677468695E-08
     -5.46183657086926E-08   7.04861291130863E-15   0.00000000000000E+00   0.00000000000000E+00   0.00000000000000E+00
     -9.38315854759024E-09  -7.76496404105785E-20   9.23798568302168E-07   9.14415409754500E-07  -1.58947899310552E-15
      0.00000000000000E+00   0.00000000000000E+00   0.00000000000000E+00   6.78911004604224E-09  -1.53733672878649E-19
     -6.43842159889142E-07  -6.37053049843254E-07  -3.17777724678750E-15   0.00000000000000E+00   0.00000000000000E+00
      0.00000000000000E+00   1.15915481627693E-09  -1.53726574387255E-19  -1.14538888213372E-07  -1.13379733397249E-07
     -3.17802552997638E-15   0.00000000000000E+00   0.00000000000000E+00   0.00000000000000E+00   4.95956213435242E-10
     -1.53724621450442E-19  -4.77098842368123E-08  -4.72139280235308E-08  -3.17809978161361E-15   0.00000000000000E+00
      0.00000000000000E+00   0.00000000000000E+00   2.93061202746701E-10  -1.89245299614112E-19  -2.73693003264639E-08
     -2.70762391239064E-08  -3.17819792743467E-15   0.00000000000000E+00   0.00000000000000E+00   0.00000000000000E+00
      2.22979488598096E-10  -1.53130796518541E-19  -1.94286187290203E-08  -1.92056392405753E-08  -3.17841453572487E-15
      1.20000000000000E-12
      0.00000000000000E+00   0.00000000000000E+00   0.00000000000000E+00   1.52073664638114E-10  -1.53130292110161E-19
     -1.45813735345848E-08  -1.44292998700999E-08  -3.17915701959942E-15   2.00000000000000E+02   2.00000000000000E+02
      0.00000000000000E+00  -6.02153670657760E-07   6.04978821882455E-07   1.33002370306329E-13   2.82528422706535E-09
      1.68178619849020E-14   0.00000000000000E+00   0.00000000000000E+00   0.00000000000000E+00  -1.35530700789209E-11
     -1.53722422816195E-19   4.75017518679800E-10   4.61464448447156E-10  -3.20732497641987E-15   0.00000000000000E+00
      0.00000000000000E+00   0.00000000000000E+00  -4.48531124720395E-09  -1.63454140124214E-11  -3.55602434601381E-08
     -4.00619001213544E-08   7.04860889772719E-15   0.00000000000000E+00   0.00000000000000E+00   0.00000000000000E+00
     -6.23355398417027E-09  -7.76509515877462E-20   6.78304481404113E-07   6.72070927419865E-07  -1.58941181013867E-15
      0.00000000000000E+00   0.00000000000000E+00   0.00000000000000E+00   4.49227003061030E-09  -1.53732333555800E-19
     -4.71746737163000E-07  -4.67254467132544E-07  -3.17782394877503E-15   0.00000000000000E+00   0.00000000000000E+00
      0.00000000000000E+00   7.77155924992166E-10  -1.53726346445349E-19  -8.53865019199019E-08  -8.46093459950635E-08
     -3.17803398627436E-15   0.00000000000000E+00   0.00000000000000E+00   0.00000000000000E+00   3.33473431641130E-10
     -1.53724522619267E-19  -3.54521843705289E-08  -3.51187109390415E-08  -3.17810329153799E-15   0.00000000000000E+00
      0.00000000000000E+00   0.00000000000000E+00   1.95487635386503E-10  -1.89245240893571E-19  -2.01189013626031E-08
     -1.99234137274059E-08  -3.17819991873097E-15   0.00000000000000E+00   0.00000000000000E+00   0.00000000000000E+00
      1.48123617751028E-10  -1.53130751117948E-19  -1.41086619246548E-08  -1.39605383070569E-08  -3.17841593115290E-15
      1.30000000000000E-12
      0.00000000000000E+00   0.00000000000000E+00   0.00000000000000E+00   1.05123848562496E-10  -1.53130257475316E-19
     -1.07305496592514E-08  -1.06254258108421E-08  -3.17915808175986E-15   2.00000000000000E+02   2.00000000000000E+02
      0.00000000000000E+00  -5.41574389201574E-07   5.44457136678154E-07   1.32383070473841E-13   2.88287985965086E-09
      1.68178622714657E-14   0.00000000000000E+00   0.00000000000000E+00   0.00000000000000E+00  -6.07075726852152E-12
     -1.53722419839284E-19   3.88891765782358E-11   3.28184191559919E-11  -3.20732497197938E-15   0.00000000000000E+00
      0.00000000000000E+00   0.00000000000000E+00  -4.05240909904480E-09  -1.63529405943002E-11  -2.62495793339440E-08
     -3.03183413735831E-08   7.04860585867678E-15   0.00000000000000E+00   0.00000000000000E+00   0.00000000000000E+00
     -4.21069567266238E-09  -7.76516577690991E-20   5.12534592600623E-07   5.08323896927883E-07  -1.58936100220207E-15
      0.00000000000000E+00   0.00000000000000E+00   0.00000000000000E+00   3.02040629561521E-09  -1.53731443557171E-19
     -3.56063480242141E-07  -3.53043073946679E-07  -3.17785922952440E-15   0.00000000000000E+00   0.00000000000000E+00
      0.00000000000000E+00   5.31009942682733E-10  -1.53726189758363E-19  -6.54689892435852E-08  -6.49379793010562E-08
     -3.17804047541357E-15   0.00000000000000E+00   0.00000000000000E+00   0.00000000000000E+00   2.28207701079318E-10
     -1.53724454653739E-19  -2.70618757927256E-08  -2.68336680918001E-08  -3.17810597294842E-15   0.00000000000000E+00
      0.00000000000000E+00   0.00000000000000E+00   1.32772601391778E-10  -1.89245200073649E-19  -1.51969259647204E-08
     -1.50641533635179E-08  -3.17820142409580E-15   0.00000000000000E+00   0.00000000000000E+00   0.00000000000000E+00
      1.00031185446010E-10  -1.53130719362244E-19  -1.05169845372474E-08  -1.04169533519546E-08  -3.17841697221894E-15
      1.40000000000000E-12