DF-ISE text

Info {
  version   = 1.0
  type      = xyplot
  datasets  = [
    "time"
    "PIX7 OuterVoltage" "PIX7 InnerVoltage" "PIX7 QuasiFermiPotential" "PIX7 DisplacementCurrent" "PIX7 eCurrent"
    "PIX7 hCurrent" "PIX7 TotalCurrent" "PIX7 Charge" "BACK OuterVoltage" "BACK InnerVoltage"
    "BACK QuasiFermiPotential" "BACK DisplacementCurrent" "BACK eCurrent" "BACK hCurrent" "BACK TotalCurrent"
    "BACK Charge" "PIX8 OuterVoltage" "PIX8 InnerVoltage" "PIX8 QuasiFermiPotential" "PIX8 DisplacementCurrent"
    "PIX8 eCurrent" "PIX8 hCurrent" "PIX8 TotalCurrent" "PIX8 Charge" "PIX9 OuterVoltage"
    "PIX9 InnerVoltage" "PIX9 QuasiFermiPotential" "PIX9 DisplacementCurrent" "PIX9 eCurrent" "PIX9 hCurrent"
    "PIX9 TotalCurrent" "PIX9 Charge" "PIX1 OuterVoltage" "PIX1 InnerVoltage" "PIX1 QuasiFermiPotential"
    "PIX1 DisplacementCurrent" "PIX1 eCurrent" "PIX1 hCurrent" "PIX1 TotalCurrent" "PIX1 Charge"
    "PIX2 OuterVoltage" "PIX2 InnerVoltage" "PIX2 QuasiFermiPotential" "PIX2 DisplacementCurrent" "PIX2 eCurrent"
    "PIX2 hCurrent" "PIX2 TotalCurrent" "PIX2 Charge" "PIX3 OuterVoltage" "PIX3 InnerVoltage"
    "PIX3 QuasiFermiPotential" "PIX3 DisplacementCurrent" "PIX3 eCurrent" "PIX3 hCurrent" "PIX3 TotalCurrent"
    "PIX3 Charge" "PIX4 OuterVoltage" "PIX4 InnerVoltage" "PIX4 QuasiFermiPotential" "PIX4 DisplacementCurrent"
    "PIX4 eCurrent" "PIX4 hCurrent" "PIX4 TotalCurrent" "PIX4 Charge" "PIX5 OuterVoltage"
    "PIX5 InnerVoltage" "PIX5 QuasiFermiPotential" "PIX5 DisplacementCurrent" "PIX5 eCurrent" "PIX5 hCurrent"
    "PIX5 TotalCurrent" "PIX5 Charge" "PIX6 OuterVoltage" "PIX6 InnerVoltage" "PIX6 QuasiFermiPotential"
    "PIX6 DisplacementCurrent" "PIX6 eCurrent" "PIX6 hCurrent" "PIX6 TotalCurrent" "PIX6 Charge" ]
  functions = [
    Time
    OuterVoltage InnerVoltage QuasiFermiPotential DisplacementCurrent eCurrent
    hCurrent TotalCurrent Charge OuterVoltage InnerVoltage
    QuasiFermiPotential DisplacementCurrent eCurrent hCurrent TotalCurrent
    Charge OuterVoltage InnerVoltage QuasiFermiPotential DisplacementCurrent
    eCurrent hCurrent TotalCurrent Charge OuterVoltage
    InnerVoltage QuasiFermiPotential DisplacementCurrent eCurrent hCurrent
    TotalCurrent Charge OuterVoltage InnerVoltage QuasiFermiPotential
    DisplacementCurrent eCurrent hCurrent TotalCurrent Charge
    OuterVoltage InnerVoltage QuasiFermiPotential DisplacementCurrent eCurrent
    hCurrent TotalCurrent Charge OuterVoltage InnerVoltage
    QuasiFermiPotential DisplacementCurrent eCurrent hCurrent TotalCurrent
    Charge OuterVoltage InnerVoltage QuasiFermiPotential DisplacementCurrent
    eCurrent hCurrent TotalCurrent Charge OuterVoltage
    InnerVoltage QuasiFermiPotential DisplacementCurrent eCurrent hCurrent
    TotalCurrent Charge OuterVoltage InnerVoltage QuasiFermiPotential
    DisplacementCurrent eCurrent hCurrent TotalCurrent Charge ]
}

Data {
      0.00000000000000E+00
      0.00000000000000E+00   0.00000000000000E+00   0.00000000000000E+00  -7.41639767642022E-30  -1.53131048027052E-19
     -4.31859537534063E-15  -4.31874850638866E-15  -3.17924148555976E-15   2.00000000000000E+02   2.00000000000000E+02
      0.00000000000000E+00   4.48912903265343E-25   1.72234066419806E-11   2.02888155577170E-14   1.72436954575388E-11
      1.68177494282920E-14   0.00000000000000E+00   0.00000000000000E+00   0.00000000000000E+00  -1.07125744214959E-29
     -1.53722664892220E-19  -4.81527078308231E-15  -4.81542450574721E-15  -3.20780957579879E-15   0.00000000000000E+00
      0.00000000000000E+00   0.00000000000000E+00   6.75056997391493E-27  -1.71999968914495E-11  -1.05034289609497E-14
     -1.72105003204104E-11   7.07088673081415E-15   0.00000000000000E+00   0.00000000000000E+00   0.00000000000000E+00
      2.88415465194120E-30  -7.62087392901926E-20  -2.46869454736120E-15  -2.46877075610049E-15  -1.61914747595537E-15
      0.00000000000000E+00   0.00000000000000E+00   0.00000000000000E+00  -1.64808837253783E-30  -1.53788914581493E-19
     -4.32533135810606E-15  -4.32548514702064E-15  -3.17225982985196E-15   0.00000000000000E+00   0.00000000000000E+00
      0.00000000000000E+00  -1.07125744214959E-29  -1.53740597260605E-19  -4.31529881004926E-15  -4.31545255064653E-15
     -3.17675365052508E-15   0.00000000000000E+00   0.00000000000000E+00   0.00000000000000E+00  -8.24044186268913E-30
     -1.53731158912797E-19  -4.31641513268356E-15  -4.31656886384248E-15  -3.17760403665464E-15   0.00000000000000E+00
      0.00000000000000E+00   0.00000000000000E+00  -1.31847069803026E-29  -1.89248307215442E-19  -4.31692432986247E-15
     -4.31711357816970E-15  -3.17799024863341E-15   0.00000000000000E+00   0.00000000000000E+00   0.00000000000000E+00
     -1.23606627940337E-29  -1.53132060281153E-19  -4.31742008837359E-15  -4.31757322043388E-15  -3.17836422924232E-15
      1.00000000000000E-13
      0.00000000000000E+00   0.00000000000000E+00   0.00000000000000E+00   3.80554090886590E-07  -1.53108219314697E-19
      2.47912866273184E-06   2.85968275361827E-06  -3.17895551728413E-15   2.00000000000000E+02   2.00000000000000E+02
      0.00000000000000E+00  -1.97697791181359E-04   2.00789939915990E-04   1.58178224647502E-13   3.09214889280884E-06
      1.68180586414569E-14   0.00000000000000E+00   0.00000000000000E+00   0.00000000000000E+00   2.15195394294746E-07
     -1.53686136236203E-19   4.21852750287785E-06   4.43372289717244E-06  -3.20736620320194E-15   0.00000000000000E+00
      0.00000000000000E+00   0.00000000000000E+00  -2.11310396506774E-04  -1.62031850379633E-11  -4.33853429983507E-06
     -2.15648947009794E-04   7.04932184107476E-15   0.00000000000000E+00   0.00000000000000E+00   0.00000000000000E+00
     -3.12772390866740E-05  -7.58465078998029E-20   2.16810749723409E-04   1.85533510636734E-04  -1.60059413298502E-15
      0.00000000000000E+00   0.00000000000000E+00   0.00000000000000E+00   1.38631378213514E-05  -1.53699966542068E-19
      2.63716009784892E-06   1.65002979192002E-05  -3.17060979725872E-15   0.00000000000000E+00   0.00000000000000E+00
      0.00000000000000E+00   3.00103549224415E-06  -1.53722769581385E-19  -1.24318237587549E-07   2.87671725465645E-06
     -3.17646597778985E-15   0.00000000000000E+00   0.00000000000000E+00   0.00000000000000E+00   1.30881382252799E-06
     -1.53718856865849E-19   3.27075905917057E-07   1.63588972844489E-06  -3.17744044723707E-15   0.00000000000000E+00
      0.00000000000000E+00   0.00000000000000E+00   7.51897622962688E-07  -1.89233716105266E-19   1.12571523561612E-06
      1.87761285857862E-06  -3.17780248714795E-15   0.00000000000000E+00   0.00000000000000E+00   0.00000000000000E+00
      5.03009959655842E-07  -1.53115041300724E-19   1.68008526105456E-06   2.18309522071025E-06  -3.17814591962689E-15
      2.00000000000000E-13
      0.00000000000000E+00   0.00000000000000E+00   0.00000000000000E+00  -7.77146362950335E-08  -1.53135478782241E-19
     -6.99661220190061E-07  -7.77375856485247E-07  -3.17903325475942E-15   2.00000000000000E+02   2.00000000000000E+02
      0.00000000000000E+00  -1.91585210641228E-05   1.77406154273478E-05   1.48492451293999E-13  -1.41790548828256E-06
      1.68179168491837E-14   0.00000000000000E+00   0.00000000000000E+00   0.00000000000000E+00  -1.01090393739227E-07
     -1.53720455650813E-19   1.83574340803041E-07   8.24839470636605E-08  -3.20735795420479E-15   0.00000000000000E+00
      0.00000000000000E+00   0.00000000000000E+00  -4.64396900597710E-08  -1.62404909190481E-11  -2.74456400788463E-06
     -2.79101993843532E-06   7.04904273957831E-15   0.00000000000000E+00   0.00000000000000E+00   0.00000000000000E+00
     -4.44354816602239E-06  -7.72683045780537E-20   4.80839716974444E-05   4.36404235314219E-05  -1.59623010410577E-15
      0.00000000000000E+00   0.00000000000000E+00   0.00000000000000E+00  -7.08402604396932E-07  -1.53934282495090E-19
     -2.53034304663398E-05  -2.60118330707369E-05  -3.17321097066184E-15   0.00000000000000E+00   0.00000000000000E+00
      0.00000000000000E+00  -1.58239940327410E-07  -1.53778785167299E-19  -6.64646834370078E-06  -6.80470828402835E-06
     -3.17714644629227E-15   0.00000000000000E+00   0.00000000000000E+00   0.00000000000000E+00  -7.59312638185015E-08
     -1.53746967694308E-19  -2.89543158742973E-06  -2.97136285124838E-06  -3.17773758253565E-15   0.00000000000000E+00
      0.00000000000000E+00   0.00000000000000E+00  -6.64648203646148E-08  -1.89258503648081E-19  -1.72106247523390E-06
     -1.78752729559871E-06  -3.17798123937923E-15   0.00000000000000E+00   0.00000000000000E+00   0.00000000000000E+00
     -6.66761035899600E-08  -1.53139061412331E-19  -1.09449859003878E-06  -1.16117469362889E-06  -3.17826203682296E-15
      3.00000000000000E-13
      0.00000000000000E+00   0.00000000000000E+00   0.00000000000000E+00   7.27536667575746E-09  -1.53133536829178E-19
     -4.38906371638854E-07  -4.31631004963250E-07  -3.17907641766778E-15   2.00000000000000E+02   2.00000000000000E+02
      0.00000000000000E+00  -6.12596742043070E-06   5.73675115286216E-06   1.44218554700409E-13  -3.89216123349985E-07
      1.68178779258469E-14   0.00000000000000E+00   0.00000000000000E+00   0.00000000000000E+00  -8.45189498737289E-10
     -1.53721231108990E-19   1.17812666372782E-07   1.16967476873891E-07  -3.20734625667314E-15   0.00000000000000E+00
      0.00000000000000E+00   0.00000000000000E+00  -2.67827526612719E-09  -1.62525396068023E-11  -1.63609125421630E-06
     -1.63878578202203E-06   7.04887885826184E-15   0.00000000000000E+00   0.00000000000000E+00   0.00000000000000E+00
     -5.56386956733714E-07  -7.74513351702882E-20   2.59034470913610E-05   2.53470601346272E-05  -1.59369541479119E-15
      0.00000000000000E+00   0.00000000000000E+00   0.00000000000000E+00   2.28932422326307E-07  -1.53863829173959E-19
     -1.67315089219134E-05  -1.65025764995873E-05  -3.17486121368002E-15   0.00000000000000E+00   0.00000000000000E+00
      0.00000000000000E+00   8.08984089999242E-08  -1.53754398080232E-19  -3.62684782523147E-06  -3.54594941623170E-06
     -3.17750103808687E-15   0.00000000000000E+00   0.00000000000000E+00   0.00000000000000E+00   3.75129664261730E-08
     -1.53735957728747E-19  -1.50953795652197E-06  -1.47202499009595E-06  -3.17788478371044E-15   0.00000000000000E+00
      0.00000000000000E+00   0.00000000000000E+00   2.17981141258118E-08  -1.89252060813622E-19  -9.03050154605960E-07
     -8.81252040480337E-07  -3.17806936389411E-15   0.00000000000000E+00   0.00000000000000E+00   0.00000000000000E+00
      1.30173831527185E-08  -1.53135365165768E-19  -6.15609138015491E-07  -6.02591754862926E-07  -3.17832229560523E-15
      4.00000000000000E-13
      0.00000000000000E+00   0.00000000000000E+00   0.00000000000000E+00   4.51475455616890E-09  -1.53132312368624E-19
     -2.75637468713300E-07  -2.71122714157284E-07  -3.17910352968876E-15   2.00000000000000E+02   2.00000000000000E+02
      0.00000000000000E+00  -3.34271969904736E-06   3.23187830109103E-06   1.41617650758250E-13  -1.10841256338678E-07
      1.68178668399969E-14   0.00000000000000E+00   0.00000000000000E+00   0.00000000000000E+00  -4.62390276570153E-10
     -1.53721630130376E-19   8.50575858921257E-08   8.45951956154018E-08  -3.20733779625345E-15   0.00000000000000E+00
      0.00000000000000E+00   0.00000000000000E+00  -3.08798777555631E-09  -1.62637272282841E-11  -9.92217280848088E-07
     -9.95321532350872E-07   7.04877932123952E-15   0.00000000000000E+00   0.00000000000000E+00   0.00000000000000E+00
     -2.55067472026885E-07  -7.75343321952695E-20   1.57279315715256E-05   1.54728640994987E-05  -1.59214814714482E-15
      0.00000000000000E+00   0.00000000000000E+00   0.00000000000000E+00   1.59520813139722E-07  -1.53814423204792E-19
     -1.06720139618157E-05  -1.05124931486761E-05  -3.17591244527407E-15   0.00000000000000E+00   0.00000000000000E+00
      0.00000000000000E+00   4.19171403027270E-08  -1.53741780288496E-19  -2.04743793521973E-06  -2.00552079491716E-06
     -3.17770158650217E-15   0.00000000000000E+00   0.00000000000000E+00   0.00000000000000E+00   1.80571185288785E-08
     -1.53730702503204E-19  -8.37725176458130E-07  -8.19668057929406E-07  -3.17796674897831E-15   0.00000000000000E+00
      0.00000000000000E+00   0.00000000000000E+00   1.06013801118876E-08  -1.89248956199521E-19  -5.03875590059815E-07
     -4.93274209948116E-07  -3.17811869050366E-15   0.00000000000000E+00   0.00000000000000E+00   0.00000000000000E+00
      7.06110673021850E-09  -1.53133379793327E-19  -3.56278687515637E-07  -3.49217580785571E-07  -3.17835721689119E-15
      5.00000000000000E-13
      0.00000000000000E+00   0.00000000000000E+00   0.00000000000000E+00   2.60708274899488E-09  -1.53131609075122E-19
     -1.81900690570533E-07  -1.79293607821692E-07  -3.17912145875839E-15   2.00000000000000E+02   2.00000000000000E+02
      0.00000000000000E+00  -2.23718510843208E-06   2.20925957252457E-06   1.39760009750205E-13  -2.79253961474942E-08
      1.68178640457329E-14   0.00000000000000E+00   0.00000000000000E+00   0.00000000000000E+00  -6.09431294365106E-10
     -1.53721960231770E-19   5.33491600473587E-08   5.27397287528399E-08  -3.20733252130411E-15   0.00000000000000E+00
      0.00000000000000E+00   0.00000000000000E+00  -5.33507019666974E-09  -1.62755802759032E-11  -6.12228510164167E-07
     -6.17579855941113E-07   7.04871755705718E-15   0.00000000000000E+00   0.00000000000000E+00   0.00000000000000E+00
     -1.48068869025034E-07  -7.75817087212291E-20   9.85214045725285E-06   9.70407158822774E-06  -1.59117776014385E-15
      0.00000000000000E+00   0.00000000000000E+00   0.00000000000000E+00   1.00590302252086E-07  -1.53783298980365E-19
     -6.83225677688585E-06  -6.73166647463392E-06  -3.17658559219433E-15   0.00000000000000E+00   0.00000000000000E+00
      0.00000000000000E+00   2.19114854347239E-08  -1.53735242255875E-19  -1.22094533109283E-06  -1.19903384565826E-06
     -3.17782148589218E-15   0.00000000000000E+00   0.00000000000000E+00   0.00000000000000E+00   9.10399915792210E-09
     -1.53728096410747E-19  -4.99912859844600E-07  -4.90808860686832E-07  -3.17801582818903E-15   0.00000000000000E+00
      0.00000000000000E+00   0.00000000000000E+00   5.39252844075359E-09  -1.89247405290240E-19  -3.01762418577259E-07
     -2.96369890136695E-07  -3.17814832660224E-15   0.00000000000000E+00   0.00000000000000E+00   0.00000000000000E+00
      3.80192486736547E-09  -1.53132330444625E-19  -2.17935310684779E-07  -2.14133385817567E-07  -3.17837862970590E-15
      6.00000000000000E-13
      0.00000000000000E+00   0.00000000000000E+00   0.00000000000000E+00   1.63408902522386E-09  -1.53131161952015E-19
     -1.23136194324844E-07  -1.21502105299773E-07  -3.17913360864945E-15   2.00000000000000E+02   2.00000000000000E+02
      0.00000000000000E+00  -1.65747402692899E-06   1.65497715343527E-06   1.38310482586644E-13  -2.49673518324174E-09
      1.68178637943350E-14   0.00000000000000E+00   0.00000000000000E+00   0.00000000000000E+00  -4.49987127562578E-10
     -1.53722176540030E-19   3.11642657968561E-08   3.07142786691398E-08  -3.20732944884817E-15   0.00000000000000E+00
      0.00000000000000E+00   0.00000000000000E+00  -6.45438428410503E-09  -1.62874661871987E-11  -3.83973108396843E-07
     -3.90443780147135E-07   7.04867850569516E-15   0.00000000000000E+00   0.00000000000000E+00   0.00000000000000E+00
     -8.96900038876229E-08  -7.76098686283932E-20   6.30357124504652E-06   6.21388124115882E-06  -1.59055639316956E-15
      0.00000000000000E+00   0.00000000000000E+00   0.00000000000000E+00   6.32299069357098E-08  -1.53763780549072E-19
     -4.41329882729733E-06  -4.35006892036177E-06  -3.17702057805133E-15   0.00000000000000E+00   0.00000000000000E+00
      0.00000000000000E+00   1.22072993797478E-08  -1.53731627180613E-19  -7.60920095839773E-07  -7.48712796460179E-07
     -3.17789635296204E-15   0.00000000000000E+00   0.00000000000000E+00   0.00000000000000E+00   5.02861580385646E-09
     -1.53726672652181E-19  -3.13990060359716E-07  -3.08961444556013E-07  -3.17804672256799E-15   0.00000000000000E+00
      0.00000000000000E+00   0.00000000000000E+00   3.00888906538831E-09  -1.89246547973417E-19  -1.89399594733834E-07
     -1.86390705668635E-07  -3.17816696473056E-15   0.00000000000000E+00   0.00000000000000E+00   0.00000000000000E+00
      2.20307792872210E-09  -1.53131724574831E-19  -1.38222109991964E-07  -1.36019032063395E-07  -3.17839223105103E-15
      7.00000000000000E-13
      0.00000000000000E+00   0.00000000000000E+00   0.00000000000000E+00   1.06820927131392E-09  -1.53130862709306E-19
     -8.46063407738026E-08  -8.35381315026418E-08  -3.17914196212336E-15   2.00000000000000E+02   2.00000000000000E+02
      0.00000000000000E+00  -1.30346643737665E-06   1.30875554636666E-06   1.37116264261731E-13   5.28924610627718E-09
      1.68178643215351E-14   0.00000000000000E+00   0.00000000000000E+00   0.00000000000000E+00  -2.83543417040768E-10
     -1.53722304454673E-19   1.72988820719951E-08   1.70153386548006E-08  -3.20732774625014E-15   0.00000000000000E+00
      0.00000000000000E+00   0.00000000000000E+00  -6.69811384863334E-09  -1.62988916129307E-11  -2.44920750861087E-07
     -2.51635163601333E-07   7.04865333476056E-15   0.00000000000000E+00   0.00000000000000E+00   0.00000000000000E+00
     -5.54855873714153E-08  -7.76268797007244E-20   4.11196505911502E-06   4.05647947174353E-06  -1.59015076711658E-15
      0.00000000000000E+00   0.00000000000000E+00   0.00000000000000E+00   3.98523346301808E-08  -1.53751517611880E-19
     -2.88709196020926E-06  -2.84723962557924E-06  -3.17730528011797E-15   0.00000000000000E+00   0.00000000000000E+00
      0.00000000000000E+00   7.15239899979678E-09  -1.53729520654193E-19  -4.91761497728544E-07  -4.84609098728900E-07
     -3.17794480951850E-15   0.00000000000000E+00   0.00000000000000E+00   0.00000000000000E+00   2.96244220320736E-09
     -1.53725837233199E-19  -2.04771041831709E-07  -2.01808599628655E-07  -3.17806690160188E-15   0.00000000000000E+00
      0.00000000000000E+00   0.00000000000000E+00   1.78239431712639E-09  -1.89246041176693E-19  -1.23000245901455E-07
     -1.21217851584518E-07  -3.17817908553876E-15   0.00000000000000E+00   0.00000000000000E+00   0.00000000000000E+00
      1.33493914260843E-09  -1.53131355968140E-19  -9.00705251180132E-08  -8.87355859755579E-08  -3.17840110402855E-15
      8.00000000000000E-13
      0.00000000000000E+00   0.00000000000000E+00   0.00000000000000E+00   7.12009874376634E-10  -1.53130658877266E-19
     -5.88300040346056E-08  -5.81179941603821E-08  -3.17914777356960E-15   2.00000000000000E+02   2.00000000000000E+02
      0.00000000000000E+00  -1.06639493745094E-06   1.07401647255353E-06   1.36095895308862E-13   7.62167119849030E-09
      1.68178650819779E-14   0.00000000000000E+00   0.00000000000000E+00   0.00000000000000E+00  -1.67043030001186E-10
     -1.53722374646222E-19   9.04905903087351E-09   8.88201600071861E-09  -3.20732685695818E-15   0.00000000000000E+00
      0.00000000000000E+00   0.00000000000000E+00  -6.46573210403343E-09  -1.63096330241116E-11  -1.59171866849961E-07
     -1.65653908587018E-07   7.04863676174563E-15   0.00000000000000E+00   0.00000000000000E+00   0.00000000000000E+00
     -3.48664868528915E-08  -7.76372302512524E-20   2.73618634112144E-06   2.70131985426847E-06  -1.58988065761420E-15
      0.00000000000000E+00   0.00000000000000E+00   0.00000000000000E+00   2.52563598430572E-08  -1.53743776920792E-19
     -1.91940510549751E-06  -1.89414874565460E-06  -3.17749467252180E-15   0.00000000000000E+00   0.00000000000000E+00
      0.00000000000000E+00   4.35744812014160E-09  -1.53728241520987E-19  -3.27987439566381E-07  -3.23629991446393E-07
     -3.17797716806587E-15   0.00000000000000E+00   0.00000000000000E+00   0.00000000000000E+00   1.82295814799514E-09
     -1.53725322363347E-19  -1.37683847942875E-07  -1.35860889795034E-07  -3.17808048582303E-15   0.00000000000000E+00
      0.00000000000000E+00   0.00000000000000E+00   1.09682982537832E-09  -1.89245727811291E-19  -8.22043939862082E-08
     -8.11075641610192E-08  -3.17818719529441E-15   0.00000000000000E+00   0.00000000000000E+00   0.00000000000000E+00
      8.31358759039013E-10  -1.53131123136698E-19  -6.01358063641400E-08  -5.93044476052542E-08  -3.17840703387643E-15
      9.00000000000000E-13
      0.00000000000000E+00   0.00000000000000E+00   0.00000000000000E+00   4.79276205784913E-10  -1.53130518078005E-19
     -4.14203404717277E-08  -4.09410642660959E-08  -3.17915186731292E-15   2.00000000000000E+02   2.00000000000000E+02
      0.00000000000000E+00  -8.97853826518378E-07   9.06161382759690E-07   1.35201082237879E-13   8.30769144239450E-09
      1.68178659110227E-14   0.00000000000000E+00   0.00000000000000E+00   0.00000000000000E+00  -9.46979259526045E-11
     -1.53722411080025E-19   4.26601992261203E-09   4.17132199650571E-09  -3.20732643871578E-15   0.00000000000000E+00
      0.00000000000000E+00   0.00000000000000E+00  -6.01671713827528E-09  -1.63196335712498E-11  -1.05669449442991E-07
     -1.11702486214837E-07   7.04862558381527E-15   0.00000000000000E+00   0.00000000000000E+00   0.00000000000000E+00
     -2.22102104678836E-08  -7.76435342330803E-20   1.86039485999251E-06   1.83818464952455E-06  -1.58969686212157E-15
      0.00000000000000E+00   0.00000000000000E+00   0.00000000000000E+00   1.61311213724198E-08  -1.53738857160389E-19
     -1.30124566725262E-06  -1.28511454588036E-06  -3.17762316111526E-15   0.00000000000000E+00   0.00000000000000E+00
      0.00000000000000E+00   2.73706557980381E-09  -1.53727439816672E-19  -2.25209771467201E-07  -2.22472705887551E-07
     -3.17799941081541E-15   0.00000000000000E+00   0.00000000000000E+00   0.00000000000000E+00   1.15602818549385E-09
     -1.53724994104096E-19  -9.51814513084299E-08  -9.40254231230897E-08  -3.17808988646794E-15   0.00000000000000E+00
      0.00000000000000E+00   0.00000000000000E+00   6.92641036815912E-10  -1.89245528997911E-19  -5.64696700435942E-08
     -5.57770290069675E-08  -3.17819277197973E-15   0.00000000000000E+00   0.00000000000000E+00   0.00000000000000E+00
      5.27638985140869E-10  -1.53130973481454E-19  -4.11580475836208E-08  -4.06304085986331E-08  -3.17841109630934E-15
      1.00000000000000E-12
      0.00000000000000E+00   0.00000000000000E+00   0.00000000000000E+00   3.24591556110937E-10  -1.53130420207206E-19
     -2.95947048376349E-08  -2.92701132816771E-08  -3.17915479395388E-15   2.00000000000000E+02   2.00000000000000E+02
      0.00000000000000E+00  -7.72882778606121E-07   7.81413690621793E-07   1.34400926462441E-13   8.53104641659814E-09
      1.68178667624030E-14   0.00000000000000E+00   0.00000000000000E+00   0.00000000000000E+00  -5.21324874401858E-11
     -1.53722427077879E-19   1.53879163869272E-09   1.48665915109881E-09  -3.20732628892400E-15   0.00000000000000E+00
      0.00000000000000E+00   0.00000000000000E+00  -5.49564854901036E-09  -1.63289195602221E-11  -7.18752976834073E-08
     -7.73872751519779E-08   7.04861783744512E-15   0.00000000000000E+00   0.00000000000000E+00   0.00000000000000E+00
     -1.43360800349732E-08  -7.76473504927231E-20   1.29537212593008E-06   1.28103604589503E-06  -1.58956878191343E-15
      0.00000000000000E+00   0.00000000000000E+00   0.00000000000000E+00   1.04044115480473E-08  -1.53735703521328E-19
     -9.02543180972704E-07  -8.92138769424811E-07  -3.17771235186086E-15   0.00000000000000E+00   0.00000000000000E+00
      0.00000000000000E+00   1.76222325324425E-09  -1.53726922825585E-19  -1.59076740292047E-07  -1.57314517038956E-07
     -3.17801513769589E-15   0.00000000000000E+00   0.00000000000000E+00   0.00000000000000E+00   7.49613902483868E-10
     -1.53724778922012E-19  -6.76323327032076E-08  -6.68827188008775E-08  -3.17809657282087E-15   0.00000000000000E+00
      0.00000000000000E+00   0.00000000000000E+00   4.46057045832686E-10  -1.89245399433911E-19  -3.99086338019459E-08
     -3.94625767563025E-08  -3.17819671720762E-15   0.00000000000000E+00   0.00000000000000E+00   0.00000000000000E+00
      3.39985816227123E-10  -1.53130874907444E-19  -2.89377668787438E-08  -2.85977810626698E-08  -3.17841395547145E-15
      1.10000000000000E-12
      0.00000000000000E+00   0.00000000000000E+00   0.00000000000000E+00   2.21039121119659E-10  -1.53130351713754E-19
     -2.15229538981694E-08  -2.13019147772029E-08  -3.17915692376965E-15   2.00000000000000E+02   2.00000000000000E+02
      0.00000000000000E+00  -6.77172734217925E-07   6.85818936486778E-07   1.33674554772064E-13   8.64633594340855E-09
      1.68178676253121E-14   0.00000000000000E+00   0.00000000000000E+00   0.00000000000000E+00  -2.77845300639829E-11
     -1.53722433224008E-19   5.56750429782229E-12  -2.22170259198831E-11  -3.20732629000698E-15   0.00000000000000E+00
      0.00000000000000E+00   0.00000000000000E+00  -4.97668742145563E-09  -1.63375524994593E-11  -5.02399171988632E-08
     -5.52329421728183E-08   7.04861230661124E-15   0.00000000000000E+00   0.00000000000000E+00   0.00000000000000E+00
     -9.38176387356090E-09  -7.76496244920515E-20   9.25759453002693E-07   9.16377689129055E-07  -1.58947716792125E-15
      0.00000000000000E+00   0.00000000000000E+00   0.00000000000000E+00   6.79032121704443E-09  -1.53733660993521E-19
     -6.42363438393031E-07  -6.35573117176140E-07  -3.17777588585074E-15   0.00000000000000E+00   0.00000000000000E+00
      0.00000000000000E+00   1.15873975161430E-09  -1.53726583003277E-19  -1.15604914728702E-07  -1.14446174977241E-07
     -3.17802657770484E-15   0.00000000000000E+00   0.00000000000000E+00   0.00000000000000E+00   4.95119019775049E-10
     -1.53724635380344E-19  -4.94372284870351E-08  -4.89421094674138E-08  -3.17810146509671E-15   0.00000000000000E+00
      0.00000000000000E+00   0.00000000000000E+00   2.92241206461468E-10  -1.89245313278776E-19  -2.90653039838163E-08
     -2.87730627775441E-08  -3.17819959347498E-15   0.00000000000000E+00   0.00000000000000E+00   0.00000000000000E+00
      2.22237169845206E-10  -1.53130808804937E-19  -2.09547239201982E-08  -2.07324867505061E-08  -3.17841602809817E-15
      1.20000000000000E-12
      0.00000000000000E+00   0.00000000000000E+00   0.00000000000000E+00   1.51443222722443E-10  -1.53130303381314E-19
     -1.59831793564716E-08  -1.58317361339023E-08  -3.17915850656352E-15   2.00000000000000E+02   2.00000000000000E+02
      0.00000000000000E+00  -6.01893471373842E-07   6.10642466116025E-07   1.33007278568738E-13   8.74912774946170E-09
      1.68178684985004E-14   0.00000000000000E+00   0.00000000000000E+00   0.00000000000000E+00  -1.41394285697247E-11
     -1.53722433420391E-19  -8.42273565588514E-10  -8.56412994311961E-10  -3.20732637449864E-15   0.00000000000000E+00
      0.00000000000000E+00   0.00000000000000E+00  -4.49426964445445E-09  -1.63456043782535E-11  -3.61764384903704E-08
     -4.06870537392031E-08   7.04860823051199E-15   0.00000000000000E+00   0.00000000000000E+00   0.00000000000000E+00
     -6.23219385384863E-09  -7.76509352606529E-20   6.80318307534225E-07   6.74086113680299E-07  -1.58940978343629E-15
      0.00000000000000E+00   0.00000000000000E+00   0.00000000000000E+00   4.49347745604585E-09  -1.53732321307789E-19
     -4.70221354116713E-07  -4.65727876660820E-07  -3.17782243518014E-15   0.00000000000000E+00   0.00000000000000E+00
      0.00000000000000E+00   7.76803547041030E-10  -1.53726355164766E-19  -8.64669498287139E-08  -8.56901462818266E-08
     -3.17803514208244E-15   0.00000000000000E+00   0.00000000000000E+00   0.00000000000000E+00   3.32683351627389E-10
     -1.53724536772514E-19  -3.72100124660468E-08  -3.68773291145731E-08  -3.17810515088212E-15   0.00000000000000E+00
      0.00000000000000E+00   0.00000000000000E+00   1.94714927720884E-10  -1.89245254782279E-19  -2.18449415159281E-08
     -2.16502265883964E-08  -3.17820175745173E-15   0.00000000000000E+00   0.00000000000000E+00   0.00000000000000E+00
      1.47412601623366E-10  -1.53130763605896E-19  -1.56618724010762E-08  -1.55144597996060E-08  -3.17841757891761E-15
      1.30000000000000E-12
      0.00000000000000E+00   0.00000000000000E+00   0.00000000000000E+00   1.04530417902544E-10  -1.53130268915028E-19
     -1.21551395589792E-08  -1.20506091412298E-08  -3.17915971124155E-15   2.00000000000000E+02   2.00000000000000E+02
      0.00000000000000E+00  -5.41313100701592E-07   5.50170627109540E-07   1.32388408224317E-13   8.85765879635703E-09
      1.68178693825420E-14   0.00000000000000E+00   0.00000000000000E+00   0.00000000000000E+00  -6.61983154395916E-12
     -1.53722430600553E-19  -1.29962399172596E-09  -1.30624382342364E-09  -3.20732650396385E-15   0.00000000000000E+00
      0.00000000000000E+00   0.00000000000000E+00  -4.06139193447101E-09  -1.63531458571023E-11  -2.68756617749974E-08
     -3.09534068553255E-08   7.04860512795238E-15   0.00000000000000E+00   0.00000000000000E+00   0.00000000000000E+00
     -4.20935201816800E-09  -7.76516410438881E-20   5.14600167224571E-07   5.10390815206325E-07  -1.58935876880845E-15
      0.00000000000000E+00   0.00000000000000E+00   0.00000000000000E+00   3.02161147670943E-09  -1.53731430949957E-19
     -3.54491864255139E-07  -3.51470252778583E-07  -3.17785755864839E-15   0.00000000000000E+00   0.00000000000000E+00
      0.00000000000000E+00   5.30659753032968E-10  -1.53726198566846E-19  -6.65623371696421E-08  -6.60316774167628E-08
     -3.17804174059101E-15   0.00000000000000E+00   0.00000000000000E+00   0.00000000000000E+00   2.27455716225612E-10
     -1.53724469019807E-19  -2.88482718035130E-08  -2.86208160874412E-08  -3.17810801100646E-15   0.00000000000000E+00
      0.00000000000000E+00   0.00000000000000E+00   1.32053189976825E-10  -1.89245214172438E-19  -1.69512365058354E-08
     -1.68191833160478E-08  -3.17820343831865E-15   0.00000000000000E+00   0.00000000000000E+00   0.00000000000000E+00
      9.93911349980989E-11  -1.53130732038908E-19  -1.20956757714891E-08  -1.19962846366442E-08  -3.17841877791598E-15
      1.40000000000000E-12