DF-ISE text

Info {
  version   = 1.0
  type      = xyplot
  datasets  = [
    "time"
    "PIX7 OuterVoltage" "PIX7 InnerVoltage" "PIX7 QuasiFermiPotential" "PIX7 DisplacementCurrent" "PIX7 eCurrent"
    "PIX7 hCurrent" "PIX7 TotalCurrent" "PIX7 Charge" "BACK OuterVoltage" "BACK InnerVoltage"
    "BACK QuasiFermiPotential" "BACK DisplacementCurrent" "BACK eCurrent" "BACK hCurrent" "BACK TotalCurrent"
    "BACK Charge" "PIX8 OuterVoltage" "PIX8 InnerVoltage" "PIX8 QuasiFermiPotential" "PIX8 DisplacementCurrent"
    "PIX8 eCurrent" "PIX8 hCurrent" "PIX8 TotalCurrent" "PIX8 Charge" "PIX9 OuterVoltage"
    "PIX9 InnerVoltage" "PIX9 QuasiFermiPotential" "PIX9 DisplacementCurrent" "PIX9 eCurrent" "PIX9 hCurrent"
    "PIX9 TotalCurrent" "PIX9 Charge" "PIX1 OuterVoltage" "PIX1 InnerVoltage" "PIX1 QuasiFermiPotential"
    "PIX1 DisplacementCurrent" "PIX1 eCurrent" "PIX1 hCurrent" "PIX1 TotalCurrent" "PIX1 Charge"
    "PIX2 OuterVoltage" "PIX2 InnerVoltage" "PIX2 QuasiFermiPotential" "PIX2 DisplacementCurrent" "PIX2 eCurrent"
    "PIX2 hCurrent" "PIX2 TotalCurrent" "PIX2 Charge" "PIX3 OuterVoltage" "PIX3 InnerVoltage"
    "PIX3 QuasiFermiPotential" "PIX3 DisplacementCurrent" "PIX3 eCurrent" "PIX3 hCurrent" "PIX3 TotalCurrent"
    "PIX3 Charge" "PIX4 OuterVoltage" "PIX4 InnerVoltage" "PIX4 QuasiFermiPotential" "PIX4 DisplacementCurrent"
    "PIX4 eCurrent" "PIX4 hCurrent" "PIX4 TotalCurrent" "PIX4 Charge" "PIX5 OuterVoltage"
    "PIX5 InnerVoltage" "PIX5 QuasiFermiPotential" "PIX5 DisplacementCurrent" "PIX5 eCurrent" "PIX5 hCurrent"
    "PIX5 TotalCurrent" "PIX5 Charge" "PIX6 OuterVoltage" "PIX6 InnerVoltage" "PIX6 QuasiFermiPotential"
    "PIX6 DisplacementCurrent" "PIX6 eCurrent" "PIX6 hCurrent" "PIX6 TotalCurrent" "PIX6 Charge" ]
  functions = [
    Time
    OuterVoltage InnerVoltage QuasiFermiPotential DisplacementCurrent eCurrent
    hCurrent TotalCurrent Charge OuterVoltage InnerVoltage
    QuasiFermiPotential DisplacementCurrent eCurrent hCurrent TotalCurrent
    Charge OuterVoltage InnerVoltage QuasiFermiPotential DisplacementCurrent
    eCurrent hCurrent TotalCurrent Charge OuterVoltage
    InnerVoltage QuasiFermiPotential DisplacementCurrent eCurrent hCurrent
    TotalCurrent Charge OuterVoltage InnerVoltage QuasiFermiPotential
    DisplacementCurrent eCurrent hCurrent TotalCurrent Charge
    OuterVoltage InnerVoltage QuasiFermiPotential DisplacementCurrent eCurrent
    hCurrent TotalCurrent Charge OuterVoltage InnerVoltage
    QuasiFermiPotential DisplacementCurrent eCurrent hCurrent TotalCurrent
    Charge OuterVoltage InnerVoltage QuasiFermiPotential DisplacementCurrent
    eCurrent hCurrent TotalCurrent Charge OuterVoltage
    InnerVoltage QuasiFermiPotential DisplacementCurrent eCurrent hCurrent
    TotalCurrent Charge OuterVoltage InnerVoltage QuasiFermiPotential
    DisplacementCurrent eCurrent hCurrent TotalCurrent Charge ]
}

Data {
      0.00000000000000E+00
      0.00000000000000E+00   0.00000000000000E+00   0.00000000000000E+00  -7.41639767642022E-30  -1.53131048027052E-19
     -4.31859537534063E-15  -4.31874850638866E-15  -3.17924148555976E-15   2.00000000000000E+02   2.00000000000000E+02
      0.00000000000000E+00   4.75915183161003E-25   1.72345153685824E-11   9.18008895593748E-15   1.72436954575388E-11
      1.68177494282920E-14   0.00000000000000E+00   0.00000000000000E+00   0.00000000000000E+00  -1.07125744214959E-29
     -1.53722664892220E-19  -4.81527078308231E-15  -4.81542450574721E-15  -3.20780957579879E-15   0.00000000000000E+00
      0.00000000000000E+00   0.00000000000000E+00  -3.37528498695747E-27  -1.73110841574673E-11   1.00583837056845E-13
     -1.72105003204104E-11   7.07088673081415E-15   0.00000000000000E+00   0.00000000000000E+00   0.00000000000000E+00
      2.88415465194120E-30  -7.62087392901926E-20  -2.46869454736120E-15  -2.46877075610049E-15  -1.61914747595537E-15
      0.00000000000000E+00   0.00000000000000E+00   0.00000000000000E+00  -1.64808837253783E-30  -1.53788914581493E-19
     -4.32533135810606E-15  -4.32548514702064E-15  -3.17225982985196E-15   0.00000000000000E+00   0.00000000000000E+00
      0.00000000000000E+00  -1.07125744214959E-29  -1.53740597260605E-19  -4.31529881004926E-15  -4.31545255064653E-15
     -3.17675365052508E-15   0.00000000000000E+00   0.00000000000000E+00   0.00000000000000E+00  -8.24044186268913E-30
     -1.53731158912797E-19  -4.31641513268356E-15  -4.31656886384248E-15  -3.17760403665464E-15   0.00000000000000E+00
      0.00000000000000E+00   0.00000000000000E+00  -1.31847069803026E-29  -1.89248307215442E-19  -4.31692432986247E-15
     -4.31711357816970E-15  -3.17799024863341E-15   0.00000000000000E+00   0.00000000000000E+00   0.00000000000000E+00
     -1.23606627940337E-29  -1.53132060281153E-19  -4.31742008837359E-15  -4.31757322043388E-15  -3.17836422924232E-15
      1.00000000000000E-13
      0.00000000000000E+00   0.00000000000000E+00   0.00000000000000E+00   3.81325924355788E-07  -1.53107971682210E-19
      2.50910680791566E-06   2.89043273227130E-06  -3.17895244228729E-15   2.00000000000000E+02   2.00000000000000E+02
      0.00000000000000E+00  -1.97692661280569E-04   2.00978298453243E-04   1.58179411256967E-13   3.28563733085347E-06
      1.68180779903007E-14   0.00000000000000E+00   0.00000000000000E+00   0.00000000000000E+00   2.15898953484647E-07
     -1.53685911926934E-19   4.24562586348884E-06   4.46152481697333E-06  -3.20736342301068E-15   0.00000000000000E+00
      0.00000000000000E+00   0.00000000000000E+00  -2.11309524711825E-04  -1.62023978931289E-11  -4.32605869134058E-06
     -2.15635599605563E-04   7.04932317580699E-15   0.00000000000000E+00   0.00000000000000E+00   0.00000000000000E+00
     -3.12815627583722E-05  -7.58478867327823E-20   2.16645815016917E-04   1.85364252258545E-04  -1.60061105881989E-15
      0.00000000000000E+00   0.00000000000000E+00   0.00000000000000E+00   1.38583678581400E-05  -1.53701475495838E-19
      2.45429759825152E-06   1.63126654563914E-05  -3.17062856049615E-15   0.00000000000000E+00   0.00000000000000E+00
      0.00000000000000E+00   3.00053408376293E-06  -1.53722924528740E-19  -1.43301688744599E-07   2.85723239501818E-06
     -3.17646792627411E-15   0.00000000000000E+00   0.00000000000000E+00   0.00000000000000E+00   1.30966672860103E-06
     -1.53718583976184E-19   3.59987349665000E-07   1.66965407826588E-06  -3.17743707080300E-15   0.00000000000000E+00
      0.00000000000000E+00   0.00000000000000E+00   7.52939774543373E-07  -1.89233382178523E-19   1.16613007798070E-06
      1.91906985252389E-06  -3.17779834145005E-15   0.00000000000000E+00   0.00000000000000E+00   0.00000000000000E+00
      5.03907683983767E-07  -1.53114753257301E-19   1.71495415288240E-06   2.21886183686601E-06  -3.17814234296650E-15
      2.00000000000000E-13
      0.00000000000000E+00   0.00000000000000E+00   0.00000000000000E+00  -7.76759322797625E-08  -1.53135220557342E-19
     -6.68213926832859E-07  -7.45889859112775E-07  -3.17902703116515E-15   2.00000000000000E+02   2.00000000000000E+02
      0.00000000000000E+00  -1.91576607243182E-05   1.79330019859202E-05   1.48494672687995E-13  -1.22465858990334E-06
      1.68179555227174E-14   0.00000000000000E+00   0.00000000000000E+00   0.00000000000000E+00  -1.01060759132213E-07
     -1.53720222676375E-19   2.11888285427239E-07   1.10827526294872E-07  -3.20735233965719E-15   0.00000000000000E+00
      0.00000000000000E+00   0.00000000000000E+00  -4.61638181350433E-08  -1.62392568105858E-11  -2.73136083719872E-06
     -2.77754089459058E-06   7.04904542219759E-15   0.00000000000000E+00   0.00000000000000E+00   0.00000000000000E+00
     -4.44382814148458E-06  -7.72697717739635E-20   4.79071671188941E-05   4.34633389774094E-05  -1.59626473838909E-15
      0.00000000000000E+00   0.00000000000000E+00   0.00000000000000E+00  -7.08617126048547E-07  -1.53935854071805E-19
     -2.54950710787637E-05  -2.62036882048124E-05  -3.17324891939329E-15   0.00000000000000E+00   0.00000000000000E+00
      0.00000000000000E+00  -1.58143590112722E-07  -1.53778908860560E-19  -6.66181866491502E-06  -6.81996225502790E-06
     -3.17714992017039E-15   0.00000000000000E+00   0.00000000000000E+00   0.00000000000000E+00  -7.58162669105680E-08
     -1.53746659157847E-19  -2.85801168613598E-06  -2.93382795304670E-06  -3.17773045261399E-15   0.00000000000000E+00
      0.00000000000000E+00   0.00000000000000E+00  -6.63966589704881E-08  -1.89258149848211E-19  -1.67800754223348E-06
     -1.74440420120416E-06  -3.17797278137522E-15   0.00000000000000E+00   0.00000000000000E+00   0.00000000000000E+00
     -6.66220630170299E-08  -1.53138758154912E-19  -1.05757248299678E-06  -1.12419454601396E-06  -3.17825476215055E-15
      3.00000000000000E-13
      0.00000000000000E+00   0.00000000000000E+00   0.00000000000000E+00   7.27702267976201E-09  -1.53133279280527E-19
     -4.07406422531695E-07  -4.00129399852086E-07  -3.17906704391667E-15   2.00000000000000E+02   2.00000000000000E+02
      0.00000000000000E+00  -6.12530388407789E-06   5.92736860451632E-06   1.44221740348138E-13  -1.97935135339829E-07
      1.68179357274795E-14   0.00000000000000E+00   0.00000000000000E+00   0.00000000000000E+00  -8.45331393660845E-10
     -1.53720999000638E-19   1.46144916989368E-07   1.45299585595553E-07  -3.20733780891721E-15   0.00000000000000E+00
      0.00000000000000E+00   0.00000000000000E+00  -2.47125698915334E-09  -1.62509370673331E-11  -1.62292142105130E-06
     -1.62540892897752E-06   7.04888287853973E-15   0.00000000000000E+00   0.00000000000000E+00   0.00000000000000E+00
     -5.56423845479644E-07  -7.74528098333179E-20   2.57248432451631E-05   2.51684193996833E-05  -1.59374791313653E-15
      0.00000000000000E+00   0.00000000000000E+00   0.00000000000000E+00   2.28944041779888E-07  -1.53865392008806E-19
     -1.69228954020604E-05  -1.66939513602807E-05  -3.17491829986734E-15   0.00000000000000E+00   0.00000000000000E+00
      0.00000000000000E+00   8.09514961967676E-08  -1.53754504659798E-19  -3.64017421595301E-06  -3.55922271975640E-06
     -3.17750583929067E-15   0.00000000000000E+00   0.00000000000000E+00   0.00000000000000E+00   3.75412679090056E-08
     -1.53735641345409E-19  -1.47099671284215E-06  -1.43345544493330E-06  -3.17787379683801E-15   0.00000000000000E+00
      0.00000000000000E+00   0.00000000000000E+00   2.18008087852026E-08  -1.89251707650230E-19  -8.59891005694169E-07
     -8.38090196909155E-07  -3.17805658971104E-15   0.00000000000000E+00   0.00000000000000E+00   0.00000000000000E+00
      1.30212455415302E-08  -1.53135062124615E-19  -5.78547044772154E-07  -5.65525799230777E-07  -3.17831131434164E-15
      4.00000000000000E-13
      0.00000000000000E+00   0.00000000000000E+00   0.00000000000000E+00   4.50794169017340E-09  -1.53132057892785E-19
     -2.44406857593506E-07  -2.39898915903486E-07  -3.17909103356293E-15   2.00000000000000E+02   2.00000000000000E+02
      0.00000000000000E+00  -3.34213019024280E-06   3.41962501211750E-06   1.41621732024982E-13   7.74949634964359E-08
      1.68179434752512E-14   0.00000000000000E+00   0.00000000000000E+00   0.00000000000000E+00  -4.68986202497428E-10
     -1.53721400869479E-19   1.13142116785671E-07   1.12673130583019E-07  -3.20732654070751E-15   0.00000000000000E+00
      0.00000000000000E+00   0.00000000000000E+00  -2.90098492246060E-09  -1.62617870882243E-11  -9.79213841358575E-07
     -9.82131088068124E-07   7.04878466052610E-15   0.00000000000000E+00   0.00000000000000E+00   0.00000000000000E+00
     -2.55038783334876E-07  -7.75357930139504E-20   1.55502892266567E-05   1.52952504433217E-05  -1.59221840683961E-15
      0.00000000000000E+00   0.00000000000000E+00   0.00000000000000E+00   1.59581531202637E-07  -1.53815962317854E-19
     -1.08611379343245E-05  -1.07015564031220E-05  -3.17598843774594E-15   0.00000000000000E+00   0.00000000000000E+00
      0.00000000000000E+00   4.19466540806303E-08  -1.53741877396423E-19  -2.05963453334942E-06  -2.01768787926894E-06
     -3.17770760440847E-15   0.00000000000000E+00   0.00000000000000E+00   0.00000000000000E+00   1.80587513911444E-08
     -1.53730386689653E-19  -7.99109556871739E-07  -7.81050805480748E-07  -3.17795190038601E-15   0.00000000000000E+00
      0.00000000000000E+00   0.00000000000000E+00   1.05889517620888E-08  -1.89248608211322E-19  -4.61198692718369E-07
     -4.50609740956470E-07  -3.17810164988091E-15   0.00000000000000E+00   0.00000000000000E+00   0.00000000000000E+00
      7.05302050382146E-09  -1.53133080410204E-19  -3.19536725086027E-07  -3.12483704582359E-07  -3.17834256224604E-15
      5.00000000000000E-13
      0.00000000000000E+00   0.00000000000000E+00   0.00000000000000E+00   2.59564246987613E-09  -1.53131359166155E-19
     -1.51115499213446E-07  -1.48519856743723E-07  -3.17910588526393E-15   2.00000000000000E+02   2.00000000000000E+02
      0.00000000000000E+00  -2.23665517215960E-06   2.39338625212393E-06   1.39764944473093E-13   1.56731219729273E-07
      1.68179591466489E-14   0.00000000000000E+00   0.00000000000000E+00   0.00000000000000E+00  -6.19899406751562E-10
     -1.53721734944881E-19   8.10328948027419E-08   8.04129953958366E-08  -3.20731849843596E-15   0.00000000000000E+00
      0.00000000000000E+00   0.00000000000000E+00  -5.16007130005833E-09  -1.62733218906480E-11  -5.99447026126192E-07
     -6.04623370748141E-07   7.04872419194753E-15   0.00000000000000E+00   0.00000000000000E+00   0.00000000000000E+00
     -1.48005567193265E-07  -7.75831449029848E-20   9.67687390331640E-06   9.52886833612305E-06  -1.59126554014285E-15
      0.00000000000000E+00   0.00000000000000E+00   0.00000000000000E+00   1.00676222524375E-07  -1.53784806918808E-19
     -7.01810640438123E-06  -6.91743018185701E-06  -3.17668016098557E-15   0.00000000000000E+00   0.00000000000000E+00
      0.00000000000000E+00   2.19309664037860E-08  -1.53735333153376E-19  -1.23239661629210E-06  -1.21046564988847E-06
     -3.17782864697182E-15   0.00000000000000E+00   0.00000000000000E+00   0.00000000000000E+00   9.09403078928741E-09
     -1.53727784879122E-19  -4.61678770915715E-07  -4.52584740126581E-07  -3.17799715719163E-15   0.00000000000000E+00
      0.00000000000000E+00   0.00000000000000E+00   5.37375608114088E-09  -1.89247064262344E-19  -2.59813405540063E-07
     -2.54439649459112E-07  -3.17812709296457E-15   0.00000000000000E+00   0.00000000000000E+00   0.00000000000000E+00
      3.78800134735498E-09  -1.53132036404063E-19  -1.81737103697412E-07  -1.77949102350210E-07  -3.17836035664010E-15
      6.00000000000000E-13
      0.00000000000000E+00   0.00000000000000E+00   0.00000000000000E+00   1.61943246989769E-09  -1.53130917084841E-19
     -9.29212078286840E-08  -9.13017753589394E-08  -3.17911501512987E-15   2.00000000000000E+02   2.00000000000000E+02
      0.00000000000000E+00  -1.65699806106719E-06   1.83487447907740E-06   1.38316209083040E-13   1.77876556326418E-07
      1.68179769325803E-14   0.00000000000000E+00   0.00000000000000E+00   0.00000000000000E+00  -4.63264631917148E-10
     -1.53721956050800E-19   5.83357449635532E-08   5.78724803314823E-08  -3.20731271016526E-15   0.00000000000000E+00
      0.00000000000000E+00   0.00000000000000E+00  -6.28961129008732E-09  -1.62849060570336E-11  -3.71451308178412E-07
     -3.77757204374556E-07   7.04868640918968E-15   0.00000000000000E+00   0.00000000000000E+00   0.00000000000000E+00
     -8.96041583032726E-08  -7.76112734699551E-20   6.13158050663299E-06   6.04197634832964E-06  -1.59066136363200E-15
      0.00000000000000E+00   0.00000000000000E+00   0.00000000000000E+00   6.33330770942857E-08  -1.53765252362445E-19
     -4.59519353031245E-06  -4.53186045321832E-06  -3.17713332593436E-15   0.00000000000000E+00   0.00000000000000E+00
      0.00000000000000E+00   1.22224097277932E-08  -1.53731713283711E-19  -7.71794472864241E-07  -7.59572063136601E-07
     -3.17790459996013E-15   0.00000000000000E+00   0.00000000000000E+00   0.00000000000000E+00   5.01240499835403E-09
     -1.53726366886960E-19  -2.76381930948001E-07  -2.71369525949801E-07  -3.17802429238727E-15   0.00000000000000E+00
      0.00000000000000E+00   0.00000000000000E+00   2.98640815956540E-09  -1.89246214974005E-19  -1.48322123718272E-07
     -1.45335715558896E-07  -3.17814162560492E-15   0.00000000000000E+00   0.00000000000000E+00   0.00000000000000E+00
      2.18532126056436E-09  -1.53131436931125E-19  -1.02713968520106E-07  -1.00528647259695E-07  -3.17837040895607E-15
      7.00000000000000E-13
      0.00000000000000E+00   0.00000000000000E+00   0.00000000000000E+00   1.05104833047986E-09  -1.53130623953071E-19
     -5.50579944661079E-08  -5.40069461357812E-08  -3.17912041549444E-15   2.00000000000000E+02   2.00000000000000E+02
      0.00000000000000E+00  -1.30304061541575E-06   1.48391871502147E-06   1.37122721064401E-13   1.80878236728449E-07
      1.68179950186795E-14   0.00000000000000E+00   0.00000000000000E+00   0.00000000000000E+00  -2.99072543102106E-10
     -1.53722089455282E-19   4.38714423906563E-08   4.35723698474005E-08  -3.20730835187044E-15   0.00000000000000E+00
      0.00000000000000E+00   0.00000000000000E+00  -6.54286741154793E-09  -1.62960451617591E-11  -2.32689242302793E-07
     -2.39248405759502E-07   7.04866247686908E-15   0.00000000000000E+00   0.00000000000000E+00   0.00000000000000E+00
     -5.53834537214269E-08  -7.76282480034014E-20   3.94389145623997E-06   3.88850800251846E-06  -1.59027253469525E-15
      0.00000000000000E+00   0.00000000000000E+00   0.00000000000000E+00   3.99687930878924E-08  -1.53752949429273E-19
     -3.06451295161519E-06  -3.02454415852745E-06  -3.17743575838298E-15   0.00000000000000E+00   0.00000000000000E+00
      0.00000000000000E+00   7.16556585662535E-09  -1.53729602601208E-19  -5.02134121621121E-07  -4.94968555764650E-07
     -3.17795409245308E-15   0.00000000000000E+00   0.00000000000000E+00   0.00000000000000E+00   2.94223425138615E-09
     -1.53725538704257E-19  -1.67943974492224E-07  -1.65001740240992E-07  -3.17804079074533E-15   0.00000000000000E+00
      0.00000000000000E+00   0.00000000000000E+00   1.75724661702063E-09  -1.89245716911366E-19  -8.28985448517533E-08
     -8.11412982349219E-08  -3.17814973877067E-15   0.00000000000000E+00   0.00000000000000E+00   0.00000000000000E+00
      1.31436205899044E-09  -1.53131075530818E-19  -5.53618664601514E-08  -5.40475044013141E-08  -3.17837581313634E-15
      8.00000000000000E-13
      0.00000000000000E+00   0.00000000000000E+00   0.00000000000000E+00   6.92888758789532E-10  -1.53130426697192E-19
     -3.00239886096930E-08  -2.93310998510566E-08  -3.17912334826179E-15   2.00000000000000E+02   2.00000000000000E+02
      0.00000000000000E+00  -1.06601629742869E-06   1.24403744050771E-06   1.36103040544826E-13   1.78021279182062E-07
      1.68180128190830E-14   0.00000000000000E+00   0.00000000000000E+00   0.00000000000000E+00  -1.84307128493904E-10
     -1.53722165561883E-19   3.49547313860654E-08   3.47704242574178E-08  -3.20730487374489E-15   0.00000000000000E+00
      0.00000000000000E+00   0.00000000000000E+00  -6.31958736466014E-09  -1.63065151624309E-11  -1.47255944785252E-07
     -1.53591838665074E-07   7.04864710999126E-15   0.00000000000000E+00   0.00000000000000E+00   0.00000000000000E+00
     -3.47521090695745E-08  -7.76385592972683E-20   2.57250857109559E-06   2.53775646202594E-06  -1.59001878149658E-15
      0.00000000000000E+00   0.00000000000000E+00   0.00000000000000E+00   2.53832885577390E-08  -1.53745166040878E-19
     -2.09194425225944E-06  -2.06656096370185E-06  -3.17764239192785E-15   0.00000000000000E+00   0.00000000000000E+00
      0.00000000000000E+00   4.36973658720833E-09  -1.53728319608460E-19  -3.37892853744956E-07  -3.33523117157901E-07
     -3.17798744030282E-15   0.00000000000000E+00   0.00000000000000E+00   0.00000000000000E+00   1.79993895025104E-09
     -1.53725031823904E-19  -1.01747153696459E-07  -9.99472147463621E-08  -3.17805078361064E-15   0.00000000000000E+00
      0.00000000000000E+00   0.00000000000000E+00   1.06955364328009E-09  -1.89245412893401E-19  -4.31604078725407E-08
     -4.20908542294499E-08  -3.17815394686996E-15   0.00000000000000E+00   0.00000000000000E+00   0.00000000000000E+00
      8.08576296596617E-10  -1.53130850544985E-19  -2.63116535347725E-08  -2.55030772383290E-08  -3.17837836285969E-15
      9.00000000000000E-13
      0.00000000000000E+00   0.00000000000000E+00   0.00000000000000E+00   4.58627340557925E-10  -1.53130292891357E-19
     -1.34145489412508E-08  -1.29559216008460E-08  -3.17912464350265E-15   2.00000000000000E+02   2.00000000000000E+02
      0.00000000000000E+00  -8.97519774516113E-07   1.07072615367909E-06   1.35208857323037E-13   1.73206514371835E-07
      1.68180301380100E-14   0.00000000000000E+00   0.00000000000000E+00   0.00000000000000E+00  -1.13306036980833E-10
     -1.53722208303512E-19   2.94529458717840E-08   2.93396398346494E-08  -3.20730193867882E-15   0.00000000000000E+00
      0.00000000000000E+00   0.00000000000000E+00  -5.87924447246403E-09  -1.63162589197526E-11  -9.40892271939775E-08
     -9.99847879253612E-08   7.04863710375291E-15   0.00000000000000E+00   0.00000000000000E+00   0.00000000000000E+00
     -2.20866873875142E-08  -7.76448208015676E-20   1.70146925857894E-06   1.67938257119135E-06  -1.58985086617150E-15
      0.00000000000000E+00   0.00000000000000E+00   0.00000000000000E+00   1.62661597497394E-08  -1.53740201409666E-19
     -1.46858966634995E-06  -1.45232350660036E-06  -3.17778760132748E-15   0.00000000000000E+00   0.00000000000000E+00
      0.00000000000000E+00   2.74889661771378E-09  -1.53727514230327E-19  -2.34665391458083E-07  -2.31916494840523E-07
     -3.17801062742014E-15   0.00000000000000E+00   0.00000000000000E+00   0.00000000000000E+00   1.13095122861501E-09
     -1.53724712196994E-19  -6.02150297690875E-08  -5.90840785406262E-08  -3.17805669013425E-15   0.00000000000000E+00
      0.00000000000000E+00   0.00000000000000E+00   6.63718340218540E-10  -1.89245223842964E-19  -1.85473502850150E-08
     -1.78836319449857E-08  -3.17815573423195E-15   0.00000000000000E+00   0.00000000000000E+00   0.00000000000000E+00
      5.03144594315198E-10  -1.53130709171895E-19  -8.28344853815234E-09  -7.78030394399027E-09  -3.17837914029611E-15
      1.00000000000000E-12
      0.00000000000000E+00   0.00000000000000E+00   0.00000000000000E+00   3.02888231334826E-10  -1.53130202308149E-19
     -2.43104791771826E-09  -2.12815968653656E-09  -3.17912485596135E-15   2.00000000000000E+02   2.00000000000000E+02
      0.00000000000000E+00  -7.72590242016001E-07   9.40298871156303E-07   1.34409277224732E-13   1.67708763549579E-07
      1.68180469071620E-14   0.00000000000000E+00   0.00000000000000E+00   0.00000000000000E+00  -7.16827912703055E-11
     -1.53722230906677E-19   2.59695594700954E-08   2.58978766786714E-08  -3.20729934777427E-15   0.00000000000000E+00
      0.00000000000000E+00   0.00000000000000E+00  -5.36637168878766E-09  -1.63253021912882E-11  -6.06456541960361E-08
     -6.60283511870151E-08   7.04863049318973E-15   0.00000000000000E+00   0.00000000000000E+00   0.00000000000000E+00
     -1.42060492073363E-08  -7.76485934603282E-20   1.14145225402437E-06   1.12724620481696E-06  -1.58973816490244E-15
      0.00000000000000E+00   0.00000000000000E+00   0.00000000000000E+00   1.05452418369120E-08  -1.53737001041191E-19
     -1.06446689654503E-06  -1.05392165470827E-06  -3.17789297026296E-15   0.00000000000000E+00   0.00000000000000E+00
      0.00000000000000E+00   1.77377947068376E-09  -1.53726993626898E-19  -1.68093721003522E-07  -1.66319941532992E-07
     -3.17802725483110E-15   0.00000000000000E+00   0.00000000000000E+00   0.00000000000000E+00   7.23059622971280E-10
     -1.53724505952046E-19  -3.36934103726908E-08  -3.29703507498733E-08  -3.17805998526498E-15   0.00000000000000E+00
      0.00000000000000E+00   0.00000000000000E+00   4.15929005532683E-10  -1.89245104364841E-19  -3.15476818959859E-09
     -2.73883918425515E-09  -3.17815600710415E-15   0.00000000000000E+00   0.00000000000000E+00   0.00000000000000E+00
      3.14298548475492E-10  -1.53130619215538E-19   2.94015354743180E-09   3.25445209575416E-09  -3.17837881425038E-15
      1.10000000000000E-12
      0.00000000000000E+00   0.00000000000000E+00   0.00000000000000E+00   1.98631484176821E-10  -1.53130141280913E-19
      4.77139665308456E-09   4.97002813710825E-09  -3.17912435859713E-15   2.00000000000000E+02   2.00000000000000E+02
      0.00000000000000E+00  -6.76918839675649E-07   8.38887925741224E-07   1.33683434681431E-13   1.61969219749010E-07
      1.68180631023596E-14   0.00000000000000E+00   0.00000000000000E+00   0.00000000000000E+00  -4.79676325449048E-11
     -1.53722243750524E-19   2.36559946465233E-08   2.36080270138247E-08  -3.20729698584267E-15   0.00000000000000E+00
      0.00000000000000E+00   0.00000000000000E+00  -4.85511754522015E-09  -1.63337059348357E-11  -3.93705158052153E-08
     -4.42419670563703E-08   7.04862606136049E-15   0.00000000000000E+00   0.00000000000000E+00   0.00000000000000E+00
     -9.24751921701876E-09  -7.76508224551125E-20   7.77008736057671E-07   7.67761216840575E-07  -1.58966141250780E-15
      0.00000000000000E+00   0.00000000000000E+00   0.00000000000000E+00   6.93480427820601E-09  -1.53734910979452E-19
     -7.98725147839558E-07  -7.91790343561506E-07  -3.17797212586844E-15   0.00000000000000E+00   0.00000000000000E+00
      0.00000000000000E+00   1.17003931703216E-09  -1.53726650293631E-19  -1.24193202608882E-07  -1.23023163292004E-07
     -3.17803955252604E-15   0.00000000000000E+00   0.00000000000000E+00   0.00000000000000E+00   4.67580441032104E-10
     -1.53724371624829E-19  -1.65637772423820E-08  -1.60961968015036E-08  -3.17806159296559E-15   0.00000000000000E+00
      0.00000000000000E+00   0.00000000000000E+00   2.61340795629316E-10  -1.89245028483913E-19   6.49003815841337E-09
      6.75137895385344E-09  -3.17815533094703E-15   0.00000000000000E+00   0.00000000000000E+00   0.00000000000000E+00
      1.95749659422844E-10  -1.53130561929537E-19   9.89605031019619E-09   1.00917999694659E-08  -3.17837780446531E-15
      1.20000000000000E-12
      0.00000000000000E+00   0.00000000000000E+00   0.00000000000000E+00   1.28665100495862E-10  -1.53130100489155E-19
      9.42793169212348E-09   9.55659679246621E-09  -3.17912340257317E-15   2.00000000000000E+02   2.00000000000000E+02
      0.00000000000000E+00  -6.01675407158340E-07   7.57838783256854E-07   1.33016638399673E-13   1.56163509115153E-07
      1.68180787169860E-14   0.00000000000000E+00   0.00000000000000E+00   0.00000000000000E+00  -3.46545290835689E-11
     -1.53722250721487E-19   2.20154983914000E-08   2.19808438621627E-08  -3.20729478661927E-15   0.00000000000000E+00
      0.00000000000000E+00   0.00000000000000E+00  -4.37988961584735E-09  -1.63415418137444E-11  -2.56720189025886E-08
     -3.00682500602497E-08   7.04862304704173E-15   0.00000000000000E+00   0.00000000000000E+00   0.00000000000000E+00
     -6.09582739570713E-09  -7.76520877730649E-20   5.36820016865398E-07   5.30724189469613E-07  -1.58960836416096E-15
      0.00000000000000E+00   0.00000000000000E+00   0.00000000000000E+00   4.63961985140236E-09  -1.53733523570088E-19
     -6.20956398357609E-07  -6.16316778506361E-07  -3.17803373397294E-15   0.00000000000000E+00   0.00000000000000E+00
      0.00000000000000E+00   7.87807424535440E-10  -1.53726419046388E-19  -9.46375183988778E-08  -9.38497109744961E-08
     -3.17804893284652E-15   0.00000000000000E+00   0.00000000000000E+00   0.00000000000000E+00   3.04621352835588E-10
     -1.53724282405631E-19  -5.42305751773325E-09  -5.11843616505139E-09  -3.17806210287910E-15   0.00000000000000E+00
      0.00000000000000E+00   0.00000000000000E+00   1.63453957115093E-10  -1.89244980325244E-19   1.24976779837820E-08
      1.26611319407078E-08  -3.17815406380918E-15   0.00000000000000E+00   0.00000000000000E+00   0.00000000000000E+00
      1.20528257328451E-10  -1.53130525626692E-19   1.41463762710821E-08   1.42669045282574E-08  -3.17837637716660E-15
      1.30000000000000E-12
      0.00000000000000E+00   0.00000000000000E+00   0.00000000000000E+00   8.17146572051961E-11  -1.53130073545937E-19
      1.23704960047169E-08   1.24522106617690E-08  -3.17912215698587E-15   2.00000000000000E+02   2.00000000000000E+02
      0.00000000000000E+00  -5.41127715305288E-07   6.91509100196366E-07   1.32398193025980E-13   1.50381517289271E-07
      1.68180937534135E-14   0.00000000000000E+00   0.00000000000000E+00   0.00000000000000E+00  -2.71730693756623E-11
     -1.53722254660928E-19   2.07636431699746E-08   2.07364701004452E-08  -3.20729271182450E-15   0.00000000000000E+00
      0.00000000000000E+00   0.00000000000000E+00  -3.95370573622214E-09  -1.63488795714362E-11  -1.67364436880679E-08
     -2.07064983038615E-08   7.04862096906624E-15   0.00000000000000E+00   0.00000000000000E+00   0.00000000000000E+00
     -4.07269084460676E-09  -7.76527484720331E-20   3.76367293883208E-07   3.72294603038524E-07  -1.58957115909550E-15
      0.00000000000000E+00   0.00000000000000E+00   0.00000000000000E+00   3.16760206692528E-09  -1.53732585793736E-19
     -4.99604901084782E-07  -4.96437299018010E-07  -3.17808335402309E-15   0.00000000000000E+00   0.00000000000000E+00
      0.00000000000000E+00   5.41346182581595E-10  -1.53726259172473E-19  -7.43280720941250E-08  -7.37867259116972E-08
     -3.17805630684560E-15   0.00000000000000E+00   0.00000000000000E+00   0.00000000000000E+00   1.99226992065991E-10
     -1.53724223949837E-19   1.84608557626973E-09   2.04531256818200E-09  -3.17806189640933E-15   0.00000000000000E+00
      0.00000000000000E+00   0.00000000000000E+00   1.00776564670250E-10  -1.89244950002502E-19   1.61790273427851E-08
      1.62798039072661E-08  -3.17815243480017E-15   0.00000000000000E+00   0.00000000000000E+00   0.00000000000000E+00
      7.24347504697509E-11  -1.53130502929233E-19   1.66681709058503E-08   1.67406056561670E-08  -3.17837470249557E-15
      1.40000000000000E-12