DF-ISE text

Info {
  version   = 1.0
  type      = xyplot
  datasets  = [
    "time"
    "PIX7 OuterVoltage" "PIX7 InnerVoltage" "PIX7 QuasiFermiPotential" "PIX7 DisplacementCurrent" "PIX7 eCurrent"
    "PIX7 hCurrent" "PIX7 TotalCurrent" "PIX7 Charge" "BACK OuterVoltage" "BACK InnerVoltage"
    "BACK QuasiFermiPotential" "BACK DisplacementCurrent" "BACK eCurrent" "BACK hCurrent" "BACK TotalCurrent"
    "BACK Charge" "PIX8 OuterVoltage" "PIX8 InnerVoltage" "PIX8 QuasiFermiPotential" "PIX8 DisplacementCurrent"
    "PIX8 eCurrent" "PIX8 hCurrent" "PIX8 TotalCurrent" "PIX8 Charge" "PIX9 OuterVoltage"
    "PIX9 InnerVoltage" "PIX9 QuasiFermiPotential" "PIX9 DisplacementCurrent" "PIX9 eCurrent" "PIX9 hCurrent"
    "PIX9 TotalCurrent" "PIX9 Charge" "PIX1 OuterVoltage" "PIX1 InnerVoltage" "PIX1 QuasiFermiPotential"
    "PIX1 DisplacementCurrent" "PIX1 eCurrent" "PIX1 hCurrent" "PIX1 TotalCurrent" "PIX1 Charge"
    "PIX2 OuterVoltage" "PIX2 InnerVoltage" "PIX2 QuasiFermiPotential" "PIX2 DisplacementCurrent" "PIX2 eCurrent"
    "PIX2 hCurrent" "PIX2 TotalCurrent" "PIX2 Charge" "PIX3 OuterVoltage" "PIX3 InnerVoltage"
    "PIX3 QuasiFermiPotential" "PIX3 DisplacementCurrent" "PIX3 eCurrent" "PIX3 hCurrent" "PIX3 TotalCurrent"
    "PIX3 Charge" "PIX4 OuterVoltage" "PIX4 InnerVoltage" "PIX4 QuasiFermiPotential" "PIX4 DisplacementCurrent"
    "PIX4 eCurrent" "PIX4 hCurrent" "PIX4 TotalCurrent" "PIX4 Charge" "PIX5 OuterVoltage"
    "PIX5 InnerVoltage" "PIX5 QuasiFermiPotential" "PIX5 DisplacementCurrent" "PIX5 eCurrent" "PIX5 hCurrent"
    "PIX5 TotalCurrent" "PIX5 Charge" "PIX6 OuterVoltage" "PIX6 InnerVoltage" "PIX6 QuasiFermiPotential"
    "PIX6 DisplacementCurrent" "PIX6 eCurrent" "PIX6 hCurrent" "PIX6 TotalCurrent" "PIX6 Charge" ]
  functions = [
    Time
    OuterVoltage InnerVoltage QuasiFermiPotential DisplacementCurrent eCurrent
    hCurrent TotalCurrent Charge OuterVoltage InnerVoltage
    QuasiFermiPotential DisplacementCurrent eCurrent hCurrent TotalCurrent
    Charge OuterVoltage InnerVoltage QuasiFermiPotential DisplacementCurrent
    eCurrent hCurrent TotalCurrent Charge OuterVoltage
    InnerVoltage QuasiFermiPotential DisplacementCurrent eCurrent hCurrent
    TotalCurrent Charge OuterVoltage InnerVoltage QuasiFermiPotential
    DisplacementCurrent eCurrent hCurrent TotalCurrent Charge
    OuterVoltage InnerVoltage QuasiFermiPotential DisplacementCurrent eCurrent
    hCurrent TotalCurrent Charge OuterVoltage InnerVoltage
    QuasiFermiPotential DisplacementCurrent eCurrent hCurrent TotalCurrent
    Charge OuterVoltage InnerVoltage QuasiFermiPotential DisplacementCurrent
    eCurrent hCurrent TotalCurrent Charge OuterVoltage
    InnerVoltage QuasiFermiPotential DisplacementCurrent eCurrent hCurrent
    TotalCurrent Charge OuterVoltage InnerVoltage QuasiFermiPotential
    DisplacementCurrent eCurrent hCurrent TotalCurrent Charge ]
}

Data {
      0.00000000000000E+00
      0.00000000000000E+00   0.00000000000000E+00   0.00000000000000E+00  -7.41639767642022E-30  -1.53131048027052E-19
     -4.31859537534063E-15  -4.31874850638866E-15  -3.17924148555976E-15   2.00000000000000E+02   2.00000000000000E+02
      0.00000000000000E+00   4.75915183161003E-25   1.72345153685824E-11   9.18008895593748E-15   1.72436954575388E-11
      1.68177494282920E-14   0.00000000000000E+00   0.00000000000000E+00   0.00000000000000E+00  -1.07125744214959E-29
     -1.53722664892220E-19  -4.81527078308231E-15  -4.81542450574721E-15  -3.20780957579879E-15   0.00000000000000E+00
      0.00000000000000E+00   0.00000000000000E+00   3.37528498695747E-27  -1.72111056180513E-11   6.05297640829724E-16
     -1.72105003204104E-11   7.07088673081416E-15   0.00000000000000E+00   0.00000000000000E+00   0.00000000000000E+00
      2.88415465194120E-30  -7.62087392901926E-20  -2.46869454736120E-15  -2.46877075610049E-15  -1.61914747595537E-15
      0.00000000000000E+00   0.00000000000000E+00   0.00000000000000E+00  -1.64808837253783E-30  -1.53788914581493E-19
     -4.32533135810606E-15  -4.32548514702064E-15  -3.17225982985196E-15   0.00000000000000E+00   0.00000000000000E+00
      0.00000000000000E+00  -1.07125744214959E-29  -1.53740597260605E-19  -4.31529881004926E-15  -4.31545255064653E-15
     -3.17675365052508E-15   0.00000000000000E+00   0.00000000000000E+00   0.00000000000000E+00  -8.24044186268913E-30
     -1.53731158912797E-19  -4.31641513268356E-15  -4.31656886384248E-15  -3.17760403665464E-15   0.00000000000000E+00
      0.00000000000000E+00   0.00000000000000E+00  -1.31847069803026E-29  -1.89248307215442E-19  -4.31692432986247E-15
     -4.31711357816970E-15  -3.17799024863341E-15   0.00000000000000E+00   0.00000000000000E+00   0.00000000000000E+00
     -1.23606627940337E-29  -1.53132060281153E-19  -4.31742008837359E-15  -4.31757322043388E-15  -3.17836422924232E-15
      1.00000000000000E-13
      0.00000000000000E+00   0.00000000000000E+00   0.00000000000000E+00   3.80650524764794E-07  -1.53108188371124E-19
      2.48287453302158E-06   2.86352505778623E-06  -3.17895513305385E-15   2.00000000000000E+02   2.00000000000000E+02
      0.00000000000000E+00  -1.97697654034665E-04   2.00803795441255E-04   1.58177946483500E-13   3.10614156476825E-06
      1.68180600407240E-14   0.00000000000000E+00   0.00000000000000E+00   0.00000000000000E+00   2.15284179672143E-07
     -1.53686107927187E-19   4.22194739124858E-06   4.43723157092057E-06  -3.20736585233466E-15   0.00000000000000E+00
      0.00000000000000E+00   0.00000000000000E+00  -2.11310286051004E-04  -1.62030852983847E-11  -4.33695387491986E-06
     -2.15647256129010E-04   7.04932201016218E-15   0.00000000000000E+00   0.00000000000000E+00   0.00000000000000E+00
     -3.12776766351842E-05  -7.58466474327482E-20   2.16794058989622E-04   1.85516382354437E-04  -1.60059584581296E-15
      0.00000000000000E+00   0.00000000000000E+00   0.00000000000000E+00   1.38626651635330E-05  -1.53700116008619E-19
      2.61904409805629E-06   1.64817092615891E-05  -3.17061165612360E-15   0.00000000000000E+00   0.00000000000000E+00
      0.00000000000000E+00   3.00100548714376E-06  -1.53722778635469E-19  -1.25439545565733E-07   2.87556594157787E-06
     -3.17646609292100E-15   0.00000000000000E+00   0.00000000000000E+00   0.00000000000000E+00   1.30892318253555E-06
     -1.53718821899751E-19   3.31294355187400E-07   1.64021753772280E-06  -3.17744001445627E-15   0.00000000000000E+00
      0.00000000000000E+00   0.00000000000000E+00   7.52025597385687E-07  -1.89233675101149E-19   1.13067798069159E-06
      1.88270357807708E-06  -3.17780197807618E-15   0.00000000000000E+00   0.00000000000000E+00   0.00000000000000E+00
      5.03120778705780E-07  -1.53115005742202E-19   1.68438963543796E-06   2.18751041414359E-06  -3.17814547810770E-15
      2.00000000000000E-13
      0.00000000000000E+00   0.00000000000000E+00   0.00000000000000E+00  -7.77062990993831E-08  -1.53135445390277E-19
     -6.95595604845627E-07  -7.73301903945164E-07  -3.17903246313417E-15   2.00000000000000E+02   2.00000000000000E+02
      0.00000000000000E+00  -1.91586546641227E-05   1.77553258333003E-05   1.48491911769618E-13  -1.40332868233049E-06
      1.68179197061315E-14   0.00000000000000E+00   0.00000000000000E+00   0.00000000000000E+00  -1.01083357640383E-07
     -1.53720425199878E-19   1.87274291578521E-07   8.61909339379843E-08  -3.20735723263903E-15   0.00000000000000E+00
      0.00000000000000E+00   0.00000000000000E+00  -4.64006200893624E-08  -1.62403308250978E-11  -2.74283256078589E-06
     -2.78924942120608E-06   7.04904308571601E-15   0.00000000000000E+00   0.00000000000000E+00   0.00000000000000E+00
     -4.44359508572320E-06  -7.72684589826628E-20   4.80653699519299E-05   4.36217748662066E-05  -1.59623368179951E-15
      0.00000000000000E+00   0.00000000000000E+00   0.00000000000000E+00  -7.08443896306519E-07  -1.53934444503635E-19
     -2.53231846564943E-05  -2.60316285528010E-05  -3.17321480907295E-15   0.00000000000000E+00   0.00000000000000E+00
      0.00000000000000E+00  -1.58230695301935E-07  -1.53778791224724E-19  -6.64723832685323E-06  -6.80546902215532E-06
     -3.17714663749698E-15   0.00000000000000E+00   0.00000000000000E+00   0.00000000000000E+00  -7.59143843975540E-08
     -1.53746927470436E-19  -2.89055226979419E-06  -2.96646665419190E-06  -3.17773666013544E-15   0.00000000000000E+00
      0.00000000000000E+00   0.00000000000000E+00  -6.64523089739827E-08  -1.89258458874462E-19  -1.71561471041281E-06
     -1.78206701938699E-06  -3.17798018428026E-15   0.00000000000000E+00   0.00000000000000E+00   0.00000000000000E+00
     -6.66655493741595E-08  -1.53139022725930E-19  -1.08978899463424E-06  -1.15645454400855E-06  -3.17826112328916E-15
      3.00000000000000E-13
      0.00000000000000E+00   0.00000000000000E+00   0.00000000000000E+00   7.27982138396268E-09  -1.53133502170043E-19
     -4.34669661342932E-07  -4.27389839959122E-07  -3.17907520192650E-15   2.00000000000000E+02   2.00000000000000E+02
      0.00000000000000E+00  -6.12610398339679E-06   5.75198051157197E-06   1.44217762445602E-13  -3.74123327607055E-07
      1.68178822920743E-14   0.00000000000000E+00   0.00000000000000E+00   0.00000000000000E+00  -8.41325017622280E-10
     -1.53721199529071E-19   1.21665331960229E-07   1.20824006942453E-07  -3.20734514945470E-15   0.00000000000000E+00
      0.00000000000000E+00   0.00000000000000E+00  -2.64606024724773E-09  -1.62523264907335E-11  -1.63429365455565E-06
     -1.63695596712939E-06   7.04887938737890E-15   0.00000000000000E+00   0.00000000000000E+00   0.00000000000000E+00
     -5.56411701752184E-07  -7.74514970245054E-20   2.58838565628338E-05   2.53274448610815E-05  -1.59370095401109E-15
      0.00000000000000E+00   0.00000000000000E+00   0.00000000000000E+00   2.28911295278973E-07  -1.53863997342490E-19
     -1.67520943972662E-05  -1.65231831019874E-05  -3.17486711274823E-15   0.00000000000000E+00   0.00000000000000E+00
      0.00000000000000E+00   8.09026886498690E-08  -1.53754402753624E-19  -3.62745300330504E-06  -3.54655031465532E-06
     -3.17750128938101E-15   0.00000000000000E+00   0.00000000000000E+00   0.00000000000000E+00   3.75209871824522E-08
     -1.53735915094483E-19  -1.50434506971039E-06  -1.46682408252809E-06  -3.17788334121997E-15   0.00000000000000E+00
      0.00000000000000E+00   0.00000000000000E+00   2.18039866767458E-08  -1.89252014354281E-19  -8.97375158352501E-07
     -8.75571171675945E-07  -3.17806774070893E-15   0.00000000000000E+00   0.00000000000000E+00   0.00000000000000E+00
      1.30227336349199E-08  -1.53135324953321E-19  -6.10693796171817E-07  -5.97671062537050E-07  -3.17832089000273E-15
      4.00000000000000E-13
      0.00000000000000E+00   0.00000000000000E+00   0.00000000000000E+00   4.51852948514486E-09  -1.53132276624223E-19
     -2.71254944581421E-07  -2.66736415096429E-07  -3.17910187531826E-15   2.00000000000000E+02   2.00000000000000E+02
      0.00000000000000E+00  -3.34285598348303E-06   3.24759850201482E-06   1.41616598155405E-13  -9.52573398516159E-08
      1.68178727646160E-14   0.00000000000000E+00   0.00000000000000E+00   0.00000000000000E+00  -4.58995391689003E-10
     -1.53721597570816E-19   8.90422449160090E-08   8.85832495241663E-08  -3.20733629023008E-15   0.00000000000000E+00
      0.00000000000000E+00   0.00000000000000E+00  -3.05677299122308E-09  -1.62634626083421E-11  -9.90364611481031E-07
     -9.93437647934862E-07   7.04878003874199E-15   0.00000000000000E+00   0.00000000000000E+00   0.00000000000000E+00
     -2.55087139715673E-07  -7.75344998244004E-20   1.57075697929884E-05   1.54524826532727E-05  -1.59215572450763E-15
      0.00000000000000E+00   0.00000000000000E+00   0.00000000000000E+00   1.59503063956000E-07  -1.53814596497424E-19
     -1.06932896807509E-05  -1.05337866167950E-05  -3.17592047368477E-15   0.00000000000000E+00   0.00000000000000E+00
      0.00000000000000E+00   4.19189642582195E-08  -1.53741784368256E-19  -2.04797176461237E-06  -2.00605280035430E-06
     -3.17770189099635E-15   0.00000000000000E+00   0.00000000000000E+00   0.00000000000000E+00   1.80627301503396E-08
     -1.53730658221705E-19  -8.32313865713328E-07  -8.14251135563142E-07  -3.17796476479633E-15   0.00000000000000E+00
      0.00000000000000E+00   0.00000000000000E+00   1.06060250833181E-08  -1.89248908415061E-19  -4.98020555587663E-07
     -4.87414530504534E-07  -3.17811648135147E-15   0.00000000000000E+00   0.00000000000000E+00   0.00000000000000E+00
      7.06547386357078E-09  -1.53133338329606E-19  -3.51194890338950E-07  -3.44129416475532E-07  -3.17835530247305E-15
      5.00000000000000E-13
      0.00000000000000E+00   0.00000000000000E+00   0.00000000000000E+00   2.61056195202170E-09  -1.53131572329817E-19
     -1.77383759263774E-07  -1.74773197311905E-07  -3.17911935234770E-15   2.00000000000000E+02   2.00000000000000E+02
      0.00000000000000E+00  -2.23732175847709E-06   2.22545628575822E-06   1.39758709517243E-13  -1.18653329601559E-08
      1.68178715763582E-14   0.00000000000000E+00   0.00000000000000E+00   0.00000000000000E+00  -6.06309755835299E-10
     -1.53721926762132E-19   5.74558634431895E-08   5.68495536872004E-08  -3.20733060429885E-15   0.00000000000000E+00
      0.00000000000000E+00   0.00000000000000E+00  -5.30392005374644E-09  -1.62752643085153E-11  -6.10323712358055E-07
     -6.15643907676110E-07   7.04871846815069E-15   0.00000000000000E+00   0.00000000000000E+00   0.00000000000000E+00
     -1.48086299311434E-07  -7.75818814127733E-20   9.83110139493938E-06   9.68301509562787E-06  -1.59118744315362E-15
      0.00000000000000E+00   0.00000000000000E+00   0.00000000000000E+00   1.00573822202302E-07  -1.53783477025027E-19
     -6.85417013156348E-06  -6.75359630936133E-06  -3.17659581358293E-15   0.00000000000000E+00   0.00000000000000E+00
      0.00000000000000E+00   2.19122465910120E-08  -1.53735246088770E-19  -1.22144928378522E-06  -1.19953703719436E-06
     -3.17782184070491E-15   0.00000000000000E+00   0.00000000000000E+00   0.00000000000000E+00   9.10866626249302E-09
     -1.53728050768691E-19  -4.94320180718489E-07  -4.85211514456150E-07  -3.17801328427341E-15   0.00000000000000E+00
      0.00000000000000E+00   0.00000000000000E+00   5.39678039932426E-09  -1.89247356280131E-19  -2.95742182917374E-07
     -2.90345402518239E-07  -3.17814551500250E-15   0.00000000000000E+00   0.00000000000000E+00   0.00000000000000E+00
      3.80590649633439E-09  -1.53132287838488E-19  -2.12697854366982E-07  -2.08891947870801E-07  -3.17837619114500E-15
      6.00000000000000E-13
      0.00000000000000E+00   0.00000000000000E+00   0.00000000000000E+00   1.63736458816245E-09  -1.53131124256264E-19
     -1.18492456264786E-07  -1.16855091676776E-07  -3.17913103753848E-15   2.00000000000000E+02   2.00000000000000E+02
      0.00000000000000E+00  -1.65761166215101E-06   1.67163803991567E-06   1.38308925696868E-13   1.40265160735833E-08
      1.68178729772855E-14   0.00000000000000E+00   0.00000000000000E+00   0.00000000000000E+00  -4.47002386300746E-10
     -1.53722142210259E-19   3.53860228026228E-08   3.49390204161684E-08  -3.20732710936948E-15   0.00000000000000E+00
      0.00000000000000E+00   0.00000000000000E+00  -6.42311400619891E-09  -1.62870986520372E-11  -3.82017861017251E-07
     -3.88457262122102E-07   7.04867961543586E-15   0.00000000000000E+00   0.00000000000000E+00   0.00000000000000E+00
     -8.97061598922134E-08  -7.76100460013523E-20   6.28190717410799E-06   6.19220101421570E-06  -1.59056824419914E-15
      0.00000000000000E+00   0.00000000000000E+00   0.00000000000000E+00   6.32141327708837E-08  -1.53763963145658E-19
     -4.43582050189655E-06  -4.37260636912582E-06  -3.17703305317800E-15   0.00000000000000E+00   0.00000000000000E+00
      0.00000000000000E+00   1.22075398409001E-08  -1.53731630925428E-19  -7.61413565296231E-07  -7.49206025455485E-07
     -3.17789675709695E-15   0.00000000000000E+00   0.00000000000000E+00   0.00000000000000E+00   5.03283944933414E-09
     -1.53726625784661E-19  -3.08233758061178E-07  -3.03200918611997E-07  -3.17804360260098E-15   0.00000000000000E+00
      0.00000000000000E+00   0.00000000000000E+00   3.01296947975979E-09  -1.89246497787380E-19  -1.83221045744988E-07
     -1.80208076265418E-07  -3.17816353486937E-15   0.00000000000000E+00   0.00000000000000E+00   0.00000000000000E+00
      2.20681955521267E-09  -1.53131680883882E-19  -1.32839626950299E-07  -1.30632807395239E-07  -3.17838925386892E-15
      7.00000000000000E-13
      0.00000000000000E+00   0.00000000000000E+00   0.00000000000000E+00   1.07133190105750E-09  -1.53130824112770E-19
     -7.98420814133805E-08  -7.87707495124762E-08  -3.17913891427549E-15   2.00000000000000E+02   2.00000000000000E+02
      0.00000000000000E+00  -1.30360517947830E-06   1.32586758127115E-06   1.37114441075108E-13   2.22625389072950E-08
      1.68178752018149E-14   0.00000000000000E+00   0.00000000000000E+00   0.00000000000000E+00  -2.80732613245670E-10
     -1.53722269315232E-19   2.16299621696466E-08   2.13492295562472E-08  -3.20732497338326E-15   0.00000000000000E+00
      0.00000000000000E+00   0.00000000000000E+00  -6.66666177488413E-09  -1.62984721923874E-11  -2.42916674705071E-07
     -2.49599634952148E-07   7.04865464804869E-15   0.00000000000000E+00   0.00000000000000E+00   0.00000000000000E+00
     -5.55008333064610E-08  -7.76270614770694E-20   4.08971200814239E-06   4.03421117483585E-06  -1.59016484497235E-15
      0.00000000000000E+00   0.00000000000000E+00   0.00000000000000E+00   3.98371677026638E-08  -1.53751704605828E-19
     -2.91019897388496E-06  -2.87036180618245E-06  -3.17732006745460E-15   0.00000000000000E+00   0.00000000000000E+00
      0.00000000000000E+00   7.15239651280031E-09  -1.53729524389417E-19  -4.92254093992660E-07  -4.85101697480013E-07
     -3.17794526291248E-15   0.00000000000000E+00   0.00000000000000E+00   0.00000000000000E+00   2.96639042741318E-09
     -1.53725789219952E-19  -1.98861891036458E-07  -1.95895500609198E-07  -3.17806319032641E-15   0.00000000000000E+00
      0.00000000000000E+00   0.00000000000000E+00   1.78634703771557E-09  -1.89245989844235E-19  -1.16668637347003E-07
     -1.14882290309477E-07  -3.17817502212323E-15   0.00000000000000E+00   0.00000000000000E+00   0.00000000000000E+00
      1.33851093594166E-09  -1.53131311241950E-19  -8.45497751585654E-08  -8.32112642227768E-08  -3.17839757441578E-15
      8.00000000000000E-13
      0.00000000000000E+00   0.00000000000000E+00   0.00000000000000E+00   7.14992627993990E-10  -1.53130619419540E-19
     -5.39510196842889E-08  -5.32360270564481E-08  -3.17914423752653E-15   2.00000000000000E+02   2.00000000000000E+02
      0.00000000000000E+00  -1.06653485320436E-06   1.09156576837670E-06   1.36093815410627E-13   2.50310512661558E-08
      1.68178777031956E-14   0.00000000000000E+00   0.00000000000000E+00   0.00000000000000E+00  -1.64349006631234E-10
     -1.53722338725650E-19   1.34841385496735E-08   1.33197895428886E-08  -3.20732364031500E-15   0.00000000000000E+00
      0.00000000000000E+00   0.00000000000000E+00  -6.43410471217065E-09  -1.63091613800470E-11  -1.57120746312718E-07
     -1.63571160186269E-07   7.04863828330223E-15   0.00000000000000E+00   0.00000000000000E+00   0.00000000000000E+00
     -3.48809827778063E-08  -7.76374162027936E-20   2.71337379471056E-06   2.67849281193268E-06  -1.58989701817005E-15
      0.00000000000000E+00   0.00000000000000E+00   0.00000000000000E+00   2.52417454523130E-08  -1.53743968149863E-19
     -1.94307537206186E-06  -1.91783362660970E-06  -3.17751182833715E-15   0.00000000000000E+00   0.00000000000000E+00
      0.00000000000000E+00   4.35732207725175E-09  -1.53728245286362E-19  -3.28484122285455E-07  -3.24126800208357E-07
     -3.17797767113980E-15   0.00000000000000E+00   0.00000000000000E+00   0.00000000000000E+00   1.82670079876725E-09
     -1.53725273266997E-19  -1.31630078470739E-07  -1.29803377672126E-07  -3.17807616879807E-15   0.00000000000000E+00
      0.00000000000000E+00   0.00000000000000E+00   1.10064204891127E-09  -1.89245675375460E-19  -7.57250736323402E-08
     -7.46244315836182E-08  -3.17818248356767E-15   0.00000000000000E+00   0.00000000000000E+00   0.00000000000000E+00
      8.34783369453311E-10  -1.53131077424610E-19  -5.44830127848902E-08  -5.36482294155901E-08  -3.17840293864363E-15
      9.00000000000000E-13
      0.00000000000000E+00   0.00000000000000E+00   0.00000000000000E+00   4.82079351754302E-10  -1.53130477802319E-19
     -3.64322115540114E-08  -3.59501322024102E-08  -3.17914783217836E-15   2.00000000000000E+02   2.00000000000000E+02
      0.00000000000000E+00  -8.97994908032243E-07   9.24133025583511E-07   1.35198738149737E-13   2.61382527500056E-08
      1.68178803152966E-14   0.00000000000000E+00   0.00000000000000E+00   0.00000000000000E+00  -9.21373028837262E-11
     -1.53722374420312E-19   8.79998352947182E-09   8.70784622643437E-09  -3.20732276842139E-15   0.00000000000000E+00
      0.00000000000000E+00   0.00000000000000E+00  -5.98491233109333E-09  -1.63191093600133E-11  -1.03573246977273E-07
     -1.09574478417726E-07   7.04862731816540E-15   0.00000000000000E+00   0.00000000000000E+00   0.00000000000000E+00
     -2.22240167733917E-08  -7.76437241637008E-20   1.83704971244431E-06   1.81482569567084E-06  -1.58971555856799E-15
      0.00000000000000E+00   0.00000000000000E+00   0.00000000000000E+00   1.61171078760464E-08  -1.53739052454918E-19
     -1.32545651453134E-06  -1.30933940665545E-06  -3.17764273940597E-15   0.00000000000000E+00   0.00000000000000E+00
      0.00000000000000E+00   2.73687015677128E-09  -1.53727443639965E-19  -2.25713192826458E-07  -2.22976322669841E-07
     -3.17799996425000E-15   0.00000000000000E+00   0.00000000000000E+00   0.00000000000000E+00   1.15958017119325E-09
     -1.53724943992357E-19  -8.89904030660373E-08  -8.78308228949977E-08  -3.17808494998494E-15   0.00000000000000E+00
      0.00000000000000E+00   0.00000000000000E+00   6.96295646538068E-10  -1.89245475497056E-19  -4.98484864436006E-08
     -4.91521907972518E-08  -3.17818739777154E-15   0.00000000000000E+00   0.00000000000000E+00   0.00000000000000E+00
      5.30875011976214E-10  -1.53130926824778E-19  -3.53793161820790E-08  -3.48484411702560E-08  -3.17840642288181E-15
      1.00000000000000E-12
      0.00000000000000E+00   0.00000000000000E+00   0.00000000000000E+00   3.27255553922367E-10  -1.53130379157308E-19
     -2.45030678027467E-08  -2.41758122489775E-08  -3.17915024939120E-15   2.00000000000000E+02   2.00000000000000E+02
      0.00000000000000E+00  -7.73024899052996E-07   7.99791717209854E-07   1.34398314564721E-13   2.67669525551718E-08
      1.68178829902674E-14   0.00000000000000E+00   0.00000000000000E+00   0.00000000000000E+00  -4.96990688321116E-11
     -1.53722389725471E-19   6.16653133812167E-09   6.11683226913584E-09  -3.20732215561365E-15   0.00000000000000E+00
      0.00000000000000E+00   0.00000000000000E+00  -5.46367572134840E-09  -1.63283424646148E-11  -6.97361255797125E-08
     -7.52161296435255E-08   7.04861978890164E-15   0.00000000000000E+00   0.00000000000000E+00   0.00000000000000E+00
     -1.43492272837208E-08  -7.76475442265304E-20   1.27152040285729E-06   1.25717117557349E-06  -1.58958986484136E-15
      0.00000000000000E+00   0.00000000000000E+00   0.00000000000000E+00   1.03909863830411E-08  -1.53735902699558E-19
     -9.27270833716312E-07  -9.16879847333425E-07  -3.17773440424730E-15   0.00000000000000E+00   0.00000000000000E+00
      0.00000000000000E+00   1.76198532558015E-09  -1.53726926709660E-19  -1.59588318434044E-07  -1.57826333108617E-07
     -3.17801574231097E-15   0.00000000000000E+00   0.00000000000000E+00   0.00000000000000E+00   7.52978608637002E-10
     -1.53724727833358E-19  -6.13110889997768E-08  -6.05581103912935E-08  -3.17809100387926E-15   0.00000000000000E+00
      0.00000000000000E+00   0.00000000000000E+00   4.49543401729759E-10  -1.89245344917791E-19  -3.31519701976467E-08
     -3.27024267961062E-08  -3.17819066698710E-15   0.00000000000000E+00   0.00000000000000E+00   0.00000000000000E+00
      3.43072395860883E-10  -1.53130827355735E-19  -2.30393732071645E-08  -2.26963008114567E-08  -3.17840869189820E-15
      1.10000000000000E-12
      0.00000000000000E+00   0.00000000000000E+00   0.00000000000000E+00   2.23573750102173E-10  -1.53130309933965E-19
     -1.63334743648947E-08  -1.61099006149456E-08  -3.17915186000776E-15   2.00000000000000E+02   2.00000000000000E+02
      0.00000000000000E+00  -6.77315906584639E-07   7.04586670813355E-07   1.33671678240101E-13   2.72708979003940E-08
      1.68178857156328E-14   0.00000000000000E+00   0.00000000000000E+00   0.00000000000000E+00  -2.55027647402936E-11
     -1.53722395206963E-19   4.72196934937451E-09   4.69646658448050E-09  -3.20732168482980E-15   0.00000000000000E+00
      0.00000000000000E+00   0.00000000000000E+00  -4.94456595911101E-09  -1.63369222359407E-11  -4.80600012158794E-08
     -5.30209040972264E-08   7.04861447926242E-15   0.00000000000000E+00   0.00000000000000E+00   0.00000000000000E+00
     -9.39420885553871E-09  -7.76498218176338E-20   9.01427022521617E-07   8.92032813666000E-07  -1.58950068533048E-15
      0.00000000000000E+00   0.00000000000000E+00   0.00000000000000E+00   6.77756335484228E-09  -1.53733863831941E-19
     -6.67583171687838E-07  -6.60805608333149E-07  -3.17780046147289E-15   0.00000000000000E+00   0.00000000000000E+00
      0.00000000000000E+00   1.15850016558258E-09  -1.53726586956385E-19  -1.16125425958621E-07  -1.14966925793192E-07
     -3.17802723439376E-15   0.00000000000000E+00   0.00000000000000E+00   0.00000000000000E+00   4.98289665415502E-10
     -1.53724583373954E-19  -4.29928494155231E-08  -4.24945597502614E-08  -3.17809525140264E-15   0.00000000000000E+00
      0.00000000000000E+00   0.00000000000000E+00   2.95575782996412E-10  -1.89245257800602E-19  -2.21799843476914E-08
     -2.18844085648842E-08  -3.17819285439203E-15   0.00000000000000E+00   0.00000000000000E+00   0.00000000000000E+00
      2.25159377547175E-10  -1.53130760407962E-19  -1.49430304044438E-08  -1.47178710270497E-08  -3.17841016306591E-15
      1.20000000000000E-12
      0.00000000000000E+00   0.00000000000000E+00   0.00000000000000E+00   1.53817957636354E-10  -1.53130260916530E-19
     -1.07015604826116E-08  -1.05477425251284E-08  -3.17915291440471E-15   2.00000000000000E+02   2.00000000000000E+02
      0.00000000000000E+00  -6.02037650257276E-07   6.29782421285879E-07   1.33004136711630E-13   2.77449040327397E-08
      1.68178884883989E-14   0.00000000000000E+00   0.00000000000000E+00   0.00000000000000E+00  -1.19719312608198E-11
     -1.53722394781974E-19   3.95757008786666E-09   3.94559815645212E-09  -3.20732128912203E-15   0.00000000000000E+00
      0.00000000000000E+00   0.00000000000000E+00  -4.46201504914380E-09  -1.63449206982479E-11  -3.39581012169440E-08
     -3.84364611867860E-08   7.04861062821245E-15   0.00000000000000E+00   0.00000000000000E+00   0.00000000000000E+00
     -6.24396516373941E-09  -7.76511358400406E-20   6.55531297990942E-07   6.49287332827125E-07  -1.58943578071663E-15
      0.00000000000000E+00   0.00000000000000E+00   0.00000000000000E+00   4.48136439926060E-09  -1.53732527644027E-19
     -4.95907429430625E-07  -4.91426065031519E-07  -3.17784958060633E-15   0.00000000000000E+00   0.00000000000000E+00
      0.00000000000000E+00   7.76528577223337E-10  -1.53726359190232E-19  -8.69967060090417E-08  -8.62201774319721E-08
     -3.17803585177315E-15   0.00000000000000E+00   0.00000000000000E+00   0.00000000000000E+00   3.35675329426427E-10
     -1.53724483915738E-19  -3.06496306675465E-08  -3.03139553382738E-08  -3.17809828085345E-15   0.00000000000000E+00
      0.00000000000000E+00   0.00000000000000E+00   1.97841349913851E-10  -1.89245198397851E-19  -1.48380658308866E-08
     -1.46402244811619E-08  -3.17819431737189E-15   0.00000000000000E+00   0.00000000000000E+00   0.00000000000000E+00
      1.50163289751911E-10  -1.53130714414752E-19  -9.54337227640611E-09  -9.39320898680733E-09  -3.17841110176314E-15
      1.30000000000000E-12
      0.00000000000000E+00   0.00000000000000E+00   0.00000000000000E+00   1.06770693193814E-10  -1.53130225811173E-19
     -6.78718512554444E-09  -6.68041443250376E-09  -3.17915358206599E-15   2.00000000000000E+02   2.00000000000000E+02
      0.00000000000000E+00  -5.41458225625158E-07   5.69664654625867E-07   1.32384993142936E-13   2.82065613857021E-08
      1.68178913073305E-14   0.00000000000000E+00   0.00000000000000E+00   0.00000000000000E+00  -4.60366301403159E-12
     -1.53722391382665E-19   3.57842107902097E-09   3.57381741585322E-09  -3.20732093058298E-15   0.00000000000000E+00
      0.00000000000000E+00   0.00000000000000E+00  -4.02902948553358E-09  -1.63524085492837E-11  -2.46212753532952E-08
     -2.86666572473781E-08   7.04860775431685E-15   0.00000000000000E+00   0.00000000000000E+00   0.00000000000000E+00
     -4.22045260948964E-09  -7.76518450329369E-20   4.89384982491122E-07   4.85164529881555E-07  -1.58938728870956E-15
      0.00000000000000E+00   0.00000000000000E+00   0.00000000000000E+00   3.01019585066298E-09  -1.53731640566698E-19
     -3.80617871500441E-07  -3.77607675649932E-07  -3.17788731780068E-15   0.00000000000000E+00   0.00000000000000E+00
      0.00000000000000E+00   5.30408842364992E-10  -1.53726202671075E-19  -6.71014851924773E-08  -6.65710763502660E-08
     -3.17804250422017E-15   0.00000000000000E+00   0.00000000000000E+00   0.00000000000000E+00   2.30277232454843E-10
     -1.53724415351464E-19  -2.21791174388140E-08  -2.19488402065129E-08  -3.17810047378330E-15   0.00000000000000E+00
      0.00000000000000E+00   0.00000000000000E+00   1.34992788858962E-10  -1.89245156940308E-19  -9.83020687414907E-09
     -9.69521408547935E-09  -3.17819528584551E-15   0.00000000000000E+00   0.00000000000000E+00   0.00000000000000E+00
      1.01953002384496E-10  -1.53130682105916E-19  -5.87698375568176E-09  -5.77503075345039E-09  -3.17841167863925E-15
      1.40000000000000E-12