DF-ISE text

Info {
  version   = 1.0
  type      = xyplot
  datasets  = [
    "time"
    "PIX7 OuterVoltage" "PIX7 InnerVoltage" "PIX7 QuasiFermiPotential" "PIX7 DisplacementCurrent" "PIX7 eCurrent"
    "PIX7 hCurrent" "PIX7 TotalCurrent" "PIX7 Charge" "BACK OuterVoltage" "BACK InnerVoltage"
    "BACK QuasiFermiPotential" "BACK DisplacementCurrent" "BACK eCurrent" "BACK hCurrent" "BACK TotalCurrent"
    "BACK Charge" "PIX8 OuterVoltage" "PIX8 InnerVoltage" "PIX8 QuasiFermiPotential" "PIX8 DisplacementCurrent"
    "PIX8 eCurrent" "PIX8 hCurrent" "PIX8 TotalCurrent" "PIX8 Charge" "PIX9 OuterVoltage"
    "PIX9 InnerVoltage" "PIX9 QuasiFermiPotential" "PIX9 DisplacementCurrent" "PIX9 eCurrent" "PIX9 hCurrent"
    "PIX9 TotalCurrent" "PIX9 Charge" "PIX1 OuterVoltage" "PIX1 InnerVoltage" "PIX1 QuasiFermiPotential"
    "PIX1 DisplacementCurrent" "PIX1 eCurrent" "PIX1 hCurrent" "PIX1 TotalCurrent" "PIX1 Charge"
    "PIX2 OuterVoltage" "PIX2 InnerVoltage" "PIX2 QuasiFermiPotential" "PIX2 DisplacementCurrent" "PIX2 eCurrent"
    "PIX2 hCurrent" "PIX2 TotalCurrent" "PIX2 Charge" "PIX3 OuterVoltage" "PIX3 InnerVoltage"
    "PIX3 QuasiFermiPotential" "PIX3 DisplacementCurrent" "PIX3 eCurrent" "PIX3 hCurrent" "PIX3 TotalCurrent"
    "PIX3 Charge" "PIX4 OuterVoltage" "PIX4 InnerVoltage" "PIX4 QuasiFermiPotential" "PIX4 DisplacementCurrent"
    "PIX4 eCurrent" "PIX4 hCurrent" "PIX4 TotalCurrent" "PIX4 Charge" "PIX5 OuterVoltage"
    "PIX5 InnerVoltage" "PIX5 QuasiFermiPotential" "PIX5 DisplacementCurrent" "PIX5 eCurrent" "PIX5 hCurrent"
    "PIX5 TotalCurrent" "PIX5 Charge" "PIX6 OuterVoltage" "PIX6 InnerVoltage" "PIX6 QuasiFermiPotential"
    "PIX6 DisplacementCurrent" "PIX6 eCurrent" "PIX6 hCurrent" "PIX6 TotalCurrent" "PIX6 Charge" ]
  functions = [
    Time
    OuterVoltage InnerVoltage QuasiFermiPotential DisplacementCurrent eCurrent
    hCurrent TotalCurrent Charge OuterVoltage InnerVoltage
    QuasiFermiPotential DisplacementCurrent eCurrent hCurrent TotalCurrent
    Charge OuterVoltage InnerVoltage QuasiFermiPotential DisplacementCurrent
    eCurrent hCurrent TotalCurrent Charge OuterVoltage
    InnerVoltage QuasiFermiPotential DisplacementCurrent eCurrent hCurrent
    TotalCurrent Charge OuterVoltage InnerVoltage QuasiFermiPotential
    DisplacementCurrent eCurrent hCurrent TotalCurrent Charge
    OuterVoltage InnerVoltage QuasiFermiPotential DisplacementCurrent eCurrent
    hCurrent TotalCurrent Charge OuterVoltage InnerVoltage
    QuasiFermiPotential DisplacementCurrent eCurrent hCurrent TotalCurrent
    Charge OuterVoltage InnerVoltage QuasiFermiPotential DisplacementCurrent
    eCurrent hCurrent TotalCurrent Charge OuterVoltage
    InnerVoltage QuasiFermiPotential DisplacementCurrent eCurrent hCurrent
    TotalCurrent Charge OuterVoltage InnerVoltage QuasiFermiPotential
    DisplacementCurrent eCurrent hCurrent TotalCurrent Charge ]
}

Data {
      0.00000000000000E+00
      0.00000000000000E+00   0.00000000000000E+00   0.00000000000000E+00  -7.41639767642022E-30  -1.53131048027052E-19
     -4.31859537534063E-15  -4.31874850638866E-15  -3.17924148555976E-15   2.00000000000000E+02   2.00000000000000E+02
      0.00000000000000E+00   4.52288188252301E-25   1.71233701164583E-11   1.20325341080036E-13   1.72436954575388E-11
      1.68177494282920E-14   0.00000000000000E+00   0.00000000000000E+00   0.00000000000000E+00  -1.07125744214959E-29
     -1.53722664892220E-19  -4.81527078308231E-15  -4.81542450574721E-15  -3.20780957579879E-15   0.00000000000000E+00
      0.00000000000000E+00   0.00000000000000E+00   6.75056997391493E-27  -1.71999968914495E-11  -1.05034289609497E-14
     -1.72105003204104E-11   7.07088673081416E-15   0.00000000000000E+00   0.00000000000000E+00   0.00000000000000E+00
      2.88415465194120E-30  -7.62087392901926E-20  -2.46869454736120E-15  -2.46877075610049E-15  -1.61914747595537E-15
      0.00000000000000E+00   0.00000000000000E+00   0.00000000000000E+00  -1.64808837253783E-30  -1.53788914581493E-19
     -4.32533135810606E-15  -4.32548514702064E-15  -3.17225982985196E-15   0.00000000000000E+00   0.00000000000000E+00
      0.00000000000000E+00  -1.07125744214959E-29  -1.53740597260605E-19  -4.31529881004926E-15  -4.31545255064653E-15
     -3.17675365052508E-15   0.00000000000000E+00   0.00000000000000E+00   0.00000000000000E+00  -8.24044186268913E-30
     -1.53731158912797E-19  -4.31641513268356E-15  -4.31656886384248E-15  -3.17760403665464E-15   0.00000000000000E+00
      0.00000000000000E+00   0.00000000000000E+00  -1.31847069803026E-29  -1.89248307215442E-19  -4.31692432986247E-15
     -4.31711357816970E-15  -3.17799024863341E-15   0.00000000000000E+00   0.00000000000000E+00   0.00000000000000E+00
     -1.23606627940337E-29  -1.53132060281153E-19  -4.31742008837359E-15  -4.31757322043388E-15  -3.17836422924232E-15
      1.00000000000000E-13
      0.00000000000000E+00   0.00000000000000E+00   0.00000000000000E+00   3.80395976582148E-07  -1.53108269968478E-19
      2.47299259988184E-06   2.85338857646384E-06  -3.17895614670164E-15   2.00000000000000E+02   2.00000000000000E+02
      0.00000000000000E+00  -1.97694246944730E-04   2.00918166212866E-04   1.58178986293157E-13   3.22391942631458E-06
      1.68180718185102E-14   0.00000000000000E+00   0.00000000000000E+00   0.00000000000000E+00   2.15077024389584E-07
     -1.53686173933607E-19   4.21397145874107E-06   4.42904848313050E-06  -3.20736667064322E-15   0.00000000000000E+00
      0.00000000000000E+00   0.00000000000000E+00  -2.11310531175971E-04  -1.62033063779946E-11  -4.34046785430943E-06
     -2.15651015233587E-04   7.04932163424790E-15   0.00000000000000E+00   0.00000000000000E+00   0.00000000000000E+00
     -3.12776705876930E-05  -7.58466455940586E-20   2.16794276818610E-04   1.85516606230916E-04  -1.60059582342525E-15
      0.00000000000000E+00   0.00000000000000E+00   0.00000000000000E+00   1.38623340365643E-05  -1.53700222624098E-19
      2.60621990209033E-06   1.64685539386545E-05  -3.17061297165555E-15   0.00000000000000E+00   0.00000000000000E+00
      0.00000000000000E+00   3.00036565864352E-06  -1.53722982847419E-19  -1.50094940845475E-07   2.85027071779789E-06
     -3.17646862244259E-15   0.00000000000000E+00   0.00000000000000E+00   0.00000000000000E+00   1.30830872086941E-06
     -1.53719017594365E-19   3.07643928898759E-07   1.61595264976802E-06  -3.17744244094423E-15   0.00000000000000E+00
      0.00000000000000E+00   0.00000000000000E+00   7.51535698232943E-07  -1.89233831822520E-19   1.11169751241497E-06
      1.86323321064773E-06  -3.17780392511220E-15   0.00000000000000E+00   0.00000000000000E+00   0.00000000000000E+00
      5.02775769471344E-07  -1.53115116319699E-19   1.67099738252295E-06   2.17377315199414E-06  -3.17814685183344E-15
      2.00000000000000E-13
      0.00000000000000E+00   0.00000000000000E+00   0.00000000000000E+00  -7.77110839751517E-08  -1.53135527924171E-19
     -7.05652449085881E-07  -7.83363533061186E-07  -3.17903448294411E-15   2.00000000000000E+02   2.00000000000000E+02
      0.00000000000000E+00  -1.91579644629273E-05   1.78692425772951E-05   1.48493966502289E-13  -1.28872173713820E-06
      1.68179429446121E-14   0.00000000000000E+00   0.00000000000000E+00   0.00000000000000E+00  -1.01085566312254E-07
     -1.53720491685091E-19   1.79190770931544E-07   7.81052046191357E-08  -3.20735885952004E-15   0.00000000000000E+00
      0.00000000000000E+00   0.00000000000000E+00  -4.64702809301002E-08  -1.62406703089411E-11  -2.74644078392933E-06
     -2.79292730552974E-06   7.04904234200505E-15   0.00000000000000E+00   0.00000000000000E+00   0.00000000000000E+00
     -4.44355392390680E-06  -7.72684440182098E-20   4.80671593831882E-05   4.36236054592814E-05  -1.59623347635241E-15
      0.00000000000000E+00   0.00000000000000E+00   0.00000000000000E+00  -7.08415189041636E-07  -1.53934541716086E-19
     -2.53349427388934E-05  -2.60433579279352E-05  -3.17321729754169E-15   0.00000000000000E+00   0.00000000000000E+00
      0.00000000000000E+00  -1.58247634852615E-07  -1.53779000164094E-19  -6.67261398324696E-06  -6.83086161809973E-06
     -3.17715170627634E-15   0.00000000000000E+00   0.00000000000000E+00   0.00000000000000E+00  -7.59338672646306E-08
     -1.53747128717991E-19  -2.91501974298917E-06  -2.99095361025395E-06  -3.17774153531715E-15   0.00000000000000E+00
      0.00000000000000E+00   0.00000000000000E+00  -6.64598451466284E-08  -1.89258617133914E-19  -1.73489080148718E-06
     -1.80135064663400E-06  -3.17798405967743E-15   0.00000000000000E+00   0.00000000000000E+00   0.00000000000000E+00
     -6.66741388328876E-08  -1.53139135255253E-19  -1.10350014638195E-06  -1.17017428521499E-06  -3.17826386898797E-15
      3.00000000000000E-13
      0.00000000000000E+00   0.00000000000000E+00   0.00000000000000E+00   7.28120814962310E-09  -1.53133583887570E-19
     -4.44669736988261E-07  -4.37388528838791E-07  -3.17907822160414E-15   2.00000000000000E+02   2.00000000000000E+02
      0.00000000000000E+00  -6.12556343394066E-06   5.86188111227121E-06   1.44220841018145E-13  -2.63682177448610E-07
      1.68179165746700E-14   0.00000000000000E+00   0.00000000000000E+00   0.00000000000000E+00  -8.40011999811700E-10
     -1.53721265365929E-19   1.13625636150904E-07   1.12785624150938E-07  -3.20734758017324E-15   0.00000000000000E+00
      0.00000000000000E+00   0.00000000000000E+00  -2.70063746480001E-09  -1.62527644227591E-11  -1.63787119691034E-06
     -1.64058808713956E-06   7.04887828044290E-15   0.00000000000000E+00   0.00000000000000E+00   0.00000000000000E+00
     -5.56376637232235E-07  -7.74514708800639E-20   2.58869965743671E-05   2.53306199371348E-05  -1.59370043105630E-15
      0.00000000000000E+00   0.00000000000000E+00   0.00000000000000E+00   2.28951261901212E-07  -1.53864081511391E-19
     -1.67623225726634E-05  -1.65333713107624E-05  -3.17487062003674E-15   0.00000000000000E+00   0.00000000000000E+00
      0.00000000000000E+00   8.09152415280716E-08  -1.53754606978353E-19  -3.65236714222305E-06  -3.57145190069513E-06
     -3.17750884831615E-15   0.00000000000000E+00   0.00000000000000E+00   0.00000000000000E+00   3.75269427431750E-08
     -1.53736113745472E-19  -1.52860372002486E-06  -1.49107677728184E-06  -3.17789064166824E-15   0.00000000000000E+00
      0.00000000000000E+00   0.00000000000000E+00   2.18113368243926E-08  -1.89252169623400E-19  -9.16367459222676E-07
     -8.94556122398473E-07  -3.17807351459872E-15   0.00000000000000E+00   0.00000000000000E+00   0.00000000000000E+00
      1.30249250411457E-08  -1.53135436260344E-19  -6.24315581936845E-07  -6.11290656895852E-07  -3.17832499765933E-15
      4.00000000000000E-13
      0.00000000000000E+00   0.00000000000000E+00   0.00000000000000E+00   4.52053252557286E-09  -1.53132357429120E-19
     -2.81176343752661E-07  -2.76655811227241E-07  -3.17910588693385E-15   2.00000000000000E+02   2.00000000000000E+02
      0.00000000000000E+00  -3.34238069501444E-06   3.35286731505161E-06   1.41620576891141E-13   1.04867616577456E-08
      1.68179176216218E-14   0.00000000000000E+00   0.00000000000000E+00   0.00000000000000E+00  -4.57684310134401E-10
     -1.53721662776246E-19   8.10520024934949E-08   8.05943181832068E-08  -3.20733951984073E-15   0.00000000000000E+00
      0.00000000000000E+00   0.00000000000000E+00  -3.10805991981863E-09  -1.62639923781499E-11  -9.93908640722349E-07
     -9.97032964634546E-07   7.04877857225682E-15   0.00000000000000E+00   0.00000000000000E+00   0.00000000000000E+00
     -2.55054316276671E-07  -7.75344632567417E-20   1.57119757372298E-05   1.54569214209531E-05  -1.59215475767605E-15
      0.00000000000000E+00   0.00000000000000E+00   0.00000000000000E+00   1.59545318518382E-07  -1.53814666947915E-19
     -1.07018906198600E-05  -1.05423453013418E-05  -3.17592483684036E-15   0.00000000000000E+00   0.00000000000000E+00
      0.00000000000000E+00   4.19380754426578E-08  -1.53741981867530E-19  -2.07215634808714E-06  -2.03021827264463E-06
     -3.17771186647482E-15   0.00000000000000E+00   0.00000000000000E+00   0.00000000000000E+00   1.80735100369380E-08
     -1.53730852812900E-19  -8.56163386415351E-07  -8.38089876378567E-07  -3.17797444911468E-15   0.00000000000000E+00
      0.00000000000000E+00   0.00000000000000E+00   1.06147852858661E-08  -1.89249060380173E-19  -5.16673563224001E-07
     -5.06058777938324E-07  -3.17812411966267E-15   0.00000000000000E+00   0.00000000000000E+00   0.00000000000000E+00
      7.06919346486309E-09  -1.53133448069436E-19  -3.64670690063291E-07  -3.57601496598581E-07  -3.17836075733539E-15
      5.00000000000000E-13
      0.00000000000000E+00   0.00000000000000E+00   0.00000000000000E+00   2.61312217390589E-09  -1.53131652086094E-19
     -1.87205469307800E-07  -1.84592347134047E-07  -3.17912434587618E-15   2.00000000000000E+02   2.00000000000000E+02
      0.00000000000000E+00  -2.23689924761957E-06   2.32572839496070E-06   1.39763475965295E-13   8.88292871045996E-08
      1.68179265028261E-14   0.00000000000000E+00   0.00000000000000E+00   0.00000000000000E+00  -6.04662545309619E-10
     -1.53721991266970E-19   4.95279577304139E-08   4.89232951849506E-08  -3.20733462653405E-15   0.00000000000000E+00
      0.00000000000000E+00   0.00000000000000E+00  -5.35325959989781E-09  -1.62758821045101E-11  -6.13833756581929E-07
     -6.19203292063931E-07   7.04871664570511E-15   0.00000000000000E+00   0.00000000000000E+00   0.00000000000000E+00
     -1.48054204895130E-07  -7.75818346928468E-20   9.83674521927086E-06   9.68869101437565E-06  -1.59118590873024E-15
      0.00000000000000E+00   0.00000000000000E+00   0.00000000000000E+00   1.00617733209390E-07  -1.53783533298575E-19
     -6.86107691743518E-06  -6.76045918422595E-06  -3.17660086302442E-15   0.00000000000000E+00   0.00000000000000E+00
      0.00000000000000E+00   2.19346357058157E-08  -1.53735435907373E-19  -1.24477266707912E-06  -1.22283803137346E-06
     -3.17783414627789E-15   0.00000000000000E+00   0.00000000000000E+00   0.00000000000000E+00   9.12179921414656E-09
     -1.53728240648772E-19  -5.17665546045292E-07  -5.08543746831299E-07  -3.17802530180992E-15   0.00000000000000E+00
      0.00000000000000E+00   0.00000000000000E+00   5.40617150916799E-09  -1.89247504840082E-19  -3.14030945956618E-07
     -3.08624774447639E-07  -3.17815498124672E-15   0.00000000000000E+00   0.00000000000000E+00   0.00000000000000E+00
      3.81054888244165E-09  -1.53132395780663E-19  -2.25992769491362E-07  -2.22182220609074E-07  -3.17838297503172E-15
      6.00000000000000E-13
      0.00000000000000E+00   0.00000000000000E+00   0.00000000000000E+00   1.64042371916540E-09  -1.53131202847757E-19
     -1.28195667630627E-07  -1.26555243911615E-07  -3.17913700107965E-15   2.00000000000000E+02   2.00000000000000E+02
      0.00000000000000E+00  -1.65723572249611E-06   1.76666392921001E-06   1.38314611489650E-13   1.09428345028509E-07
      1.68179374439361E-14   0.00000000000000E+00   0.00000000000000E+00   0.00000000000000E+00  -4.45024365825410E-10
     -1.53722205927024E-19   2.75340592517181E-08   2.70890348857390E-08  -3.20733191660164E-15   0.00000000000000E+00
      0.00000000000000E+00   0.00000000000000E+00  -6.47075397075765E-09  -1.62878014041440E-11  -3.85491960606760E-07
     -3.91979002378922E-07   7.04867744079014E-15   0.00000000000000E+00   0.00000000000000E+00   0.00000000000000E+00
     -8.96743558071282E-08  -7.76099892550509E-20   6.28877718911276E-06   6.19910283330555E-06  -1.59056601959406E-15
      0.00000000000000E+00   0.00000000000000E+00   0.00000000000000E+00   6.32592220137456E-08  -1.53764004954761E-19
     -4.44098810310629E-06  -4.37772888109270E-06  -3.17703861486898E-15   0.00000000000000E+00   0.00000000000000E+00
      0.00000000000000E+00   1.22318911408203E-08  -1.53731812608754E-19  -7.83798505270465E-07  -7.71566614129799E-07
     -3.17791129872294E-15   0.00000000000000E+00   0.00000000000000E+00   0.00000000000000E+00   5.04739873104604E-09
     -1.53726810569181E-19  -3.31017897950688E-07  -3.25970499219795E-07  -3.17805789708943E-15   0.00000000000000E+00
      0.00000000000000E+00   0.00000000000000E+00   3.02284153801913E-09  -1.89246642842296E-19  -2.01127435049248E-07
     -1.98104593511418E-07  -3.17817479076030E-15   0.00000000000000E+00   0.00000000000000E+00   0.00000000000000E+00
      2.21214826304307E-09  -1.53131786865542E-19  -1.45927527154514E-07  -1.43715378891624E-07  -3.17839734600929E-15
      7.00000000000000E-13
      0.00000000000000E+00   0.00000000000000E+00   0.00000000000000E+00   1.07476940782885E-09  -1.53130901432347E-19
     -8.94118677200417E-08  -8.83370983123659E-08  -3.17914583444856E-15   2.00000000000000E+02   2.00000000000000E+02
      0.00000000000000E+00  -1.30327144239137E-06   1.41548617210808E-06   1.37120760606245E-13   1.12214866837473E-07
      1.68179486636984E-14   0.00000000000000E+00   0.00000000000000E+00   0.00000000000000E+00  -2.78473399403245E-10
     -1.53722332154536E-19   1.38652298499027E-08   1.35867564503458E-08  -3.20733055686088E-15   0.00000000000000E+00
      0.00000000000000E+00   0.00000000000000E+00  -6.71269336593275E-09  -1.62992571015454E-11  -2.46352471658493E-07
     -2.53081464281528E-07   7.04865212518998E-15   0.00000000000000E+00   0.00000000000000E+00   0.00000000000000E+00
     -5.54693049867048E-08  -7.76269948216040E-20   4.09779779965952E-06   4.04232849467274E-06  -1.59016180863565E-15
      0.00000000000000E+00   0.00000000000000E+00   0.00000000000000E+00   3.98828451366480E-08  -1.53751731827280E-19
     -2.91360319530227E-06  -2.87372035016578E-06  -3.17732596499822E-15   0.00000000000000E+00   0.00000000000000E+00
      0.00000000000000E+00   7.17793999103377E-09  -1.53729697456065E-19  -5.13653747842648E-07  -5.06475807851768E-07
     -3.17796194194269E-15   0.00000000000000E+00   0.00000000000000E+00   0.00000000000000E+00   2.98188073774032E-09
     -1.53725968676140E-19  -2.21048085466655E-07  -2.18066204729068E-07  -3.17807970187817E-15   0.00000000000000E+00
      0.00000000000000E+00   0.00000000000000E+00   1.79658355114417E-09  -1.89246131342791E-19  -1.34178780724101E-07
     -1.32382197173146E-07  -3.17818802799902E-15   0.00000000000000E+00   0.00000000000000E+00   0.00000000000000E+00
      1.34436235212714E-09  -1.53131415135144E-19  -9.74113578877375E-08  -9.60669955357635E-08  -3.17840695212521E-15
      8.00000000000000E-13
      0.00000000000000E+00   0.00000000000000E+00   0.00000000000000E+00   7.18705082752158E-10  -1.53130695404022E-19
     -6.33765217565358E-08  -6.26578166739368E-08  -3.17915209987516E-15   2.00000000000000E+02   2.00000000000000E+02
      0.00000000000000E+00  -1.06623971311162E-06   1.17569295698280E-06   1.36100872805169E-13   1.09453379972048E-07
      1.68179596073121E-14   0.00000000000000E+00   0.00000000000000E+00   0.00000000000000E+00  -1.61873488906785E-10
     -1.53722400653580E-19   5.81507467780214E-09   5.65320118874163E-09  -3.20732999044931E-15   0.00000000000000E+00
      0.00000000000000E+00   0.00000000000000E+00  -6.47863768167910E-09  -1.63100258161035E-11  -1.60516103541806E-07
     -1.67011051249302E-07   7.04863541642067E-15   0.00000000000000E+00   0.00000000000000E+00   0.00000000000000E+00
     -3.48498491957954E-08  -7.76373397915745E-20   2.72266030884237E-06   2.68781045964649E-06  -1.58989305006916E-15
      0.00000000000000E+00   0.00000000000000E+00   0.00000000000000E+00   2.52875348360367E-08  -1.53743980804553E-19
     -1.94471170699750E-06  -1.91942417216162E-06  -3.17751788493362E-15   0.00000000000000E+00   0.00000000000000E+00
      0.00000000000000E+00   4.38352340598795E-09  -1.53728409727733E-19  -3.48872582865977E-07  -3.44489059460143E-07
     -3.17799638638826E-15   0.00000000000000E+00   0.00000000000000E+00   0.00000000000000E+00   1.84277688499900E-09
     -1.53725447867984E-19  -1.53195570125996E-07  -1.51352793241151E-07  -3.17809483528328E-15   0.00000000000000E+00
      0.00000000000000E+00   0.00000000000000E+00   1.11111966107377E-09  -1.89245813264129E-19  -9.28294238868643E-08
     -9.17183042259797E-08  -3.17819719882413E-15   0.00000000000000E+00   0.00000000000000E+00   0.00000000000000E+00
      8.40962492627510E-10  -1.53131179138161E-19  -6.71048062401925E-08  -6.62638437477181E-08  -3.17841357790983E-15
      9.00000000000000E-13
      0.00000000000000E+00   0.00000000000000E+00   0.00000000000000E+00   4.85988667250376E-10  -1.53130552407257E-19
     -4.57063090095880E-08  -4.52203203424907E-08  -3.17915662154196E-15   2.00000000000000E+02   2.00000000000000E+02
      0.00000000000000E+00  -8.97735269361621E-07   1.00275376227709E-06   1.35206353500705E-13   1.05018628121819E-07
      1.68179701074505E-14   0.00000000000000E+00   0.00000000000000E+00   0.00000000000000E+00  -8.95119215609366E-11
     -1.53722434776624E-19   1.23233049710841E-09   1.14281857539375E-09  -3.20732987505605E-15   0.00000000000000E+00
      0.00000000000000E+00   0.00000000000000E+00  -6.02807193580787E-09  -1.63200508523012E-11  -1.06926553597766E-07
     -1.12970945584427E-07   7.04862411159992E-15   0.00000000000000E+00   0.00000000000000E+00   0.00000000000000E+00
     -2.21934427481219E-08  -7.76436381977506E-20   1.84751516693224E-06   1.82532172418404E-06  -1.58971054086507E-15
      0.00000000000000E+00   0.00000000000000E+00   0.00000000000000E+00   1.61625500695761E-08  -1.53739050705111E-19
     -1.32533837438627E-06  -1.30917582431685E-06  -3.17764877964263E-15   0.00000000000000E+00   0.00000000000000E+00
      0.00000000000000E+00   2.76330837312184E-09  -1.53727599360391E-19  -2.45080859695056E-07  -2.42317551322088E-07
     -3.17802061361281E-15   0.00000000000000E+00   0.00000000000000E+00   0.00000000000000E+00   1.17596947516523E-09
     -1.53725112216377E-19  -1.09923498081888E-07  -1.08747528606876E-07  -3.17810570813166E-15   0.00000000000000E+00
      0.00000000000000E+00   0.00000000000000E+00   7.06882737322914E-10  -1.89245609780322E-19  -6.65421473174996E-08
     -6.58352645803659E-08  -3.17820378132800E-15   0.00000000000000E+00   0.00000000000000E+00   0.00000000000000E+00
      5.37271730400664E-10  -1.53131026323262E-19  -4.77530078969981E-08  -4.72157361667505E-08  -3.17841829887228E-15
      1.00000000000000E-12
      0.00000000000000E+00   0.00000000000000E+00   0.00000000000000E+00   3.31271301199268E-10  -1.53130452363270E-19
     -3.36218125994938E-08  -3.32905412984476E-08  -3.17915995022344E-15   2.00000000000000E+02   2.00000000000000E+02
      0.00000000000000E+00  -7.72797810580077E-07   8.72951639457038E-07   1.34406586912851E-13   1.00153963283547E-07
      1.68179801211225E-14   0.00000000000000E+00   0.00000000000000E+00   0.00000000000000E+00  -4.69776785814108E-11
     -1.53722449942872E-19  -1.29632785484369E-09  -1.34330553357882E-09  -3.20733000825944E-15   0.00000000000000E+00
      0.00000000000000E+00   0.00000000000000E+00  -5.50556771007148E-09  -1.63293586781038E-11  -7.30464155488555E-08
     -7.85683126176051E-08   7.04861624707746E-15   0.00000000000000E+00   0.00000000000000E+00   0.00000000000000E+00
     -1.43193997367871E-08  -7.76474489544519E-20   1.28313594931466E-06   1.26881654957780E-06  -1.58958368260214E-15
      0.00000000000000E+00   0.00000000000000E+00   0.00000000000000E+00   1.04356790908273E-08  -1.53735886831314E-19
     -9.25427513371379E-07  -9.14991834280705E-07  -3.17774025568130E-15   0.00000000000000E+00   0.00000000000000E+00
      0.00000000000000E+00   1.78833463587703E-09  -1.53727073847351E-19  -1.77938990846200E-07  -1.76150656210477E-07
     -3.17803822409679E-15   0.00000000000000E+00   0.00000000000000E+00   0.00000000000000E+00   7.69415258726666E-10
     -1.53724890725422E-19  -8.16092914917033E-08  -8.08398762331304E-08  -3.17811379019259E-15   0.00000000000000E+00
      0.00000000000000E+00   0.00000000000000E+00   4.60169997308064E-10  -1.89245475617615E-19  -4.94346775039372E-08
     -4.89745075068184E-08  -3.17820867774349E-15   0.00000000000000E+00   0.00000000000000E+00   0.00000000000000E+00
      3.49580319228218E-10  -1.53130924623354E-19  -3.51610596164840E-08  -3.48114792974089E-08  -3.17842177940071E-15
      1.10000000000000E-12
      0.00000000000000E+00   0.00000000000000E+00   0.00000000000000E+00   2.27608535300323E-10  -1.53130381741890E-19
     -2.52955893448732E-08  -2.50679808097260E-08  -3.17916245664333E-15   2.00000000000000E+02   2.00000000000000E+02
      0.00000000000000E+00  -6.77118267969325E-07   7.72383352829621E-07   1.33680381773507E-13   9.52652185406777E-08
      1.68179896459199E-14   0.00000000000000E+00   0.00000000000000E+00   0.00000000000000E+00  -2.27423213163917E-11
     -1.53722454308351E-19  -2.63466559023276E-09  -2.65740791170288E-09  -3.20733027286010E-15   0.00000000000000E+00
      0.00000000000000E+00   0.00000000000000E+00  -4.98528222929579E-09  -1.63380109680031E-11  -5.13269142499086E-08
     -5.63285344901724E-08   7.04861060663183E-15   0.00000000000000E+00   0.00000000000000E+00   0.00000000000000E+00
     -9.36532376406673E-09  -7.76497175551639E-20   9.14157196143283E-07   9.04791872379138E-07  -1.58949322718681E-15
      0.00000000000000E+00   0.00000000000000E+00   0.00000000000000E+00   6.82112105984135E-09  -1.53733834225129E-19
     -6.64057570524558E-07  -6.57236449464870E-07  -3.17780595598995E-15   0.00000000000000E+00   0.00000000000000E+00
      0.00000000000000E+00   1.18446443534546E-09  -1.53726725659464E-19  -1.33473944700556E-07  -1.32289480265364E-07
     -3.17805144842499E-15   0.00000000000000E+00   0.00000000000000E+00   0.00000000000000E+00   5.14607029378433E-10
     -1.53724740241235E-19  -6.26614560261907E-08  -6.21468489969659E-08  -3.17812000293401E-15   0.00000000000000E+00
      0.00000000000000E+00   0.00000000000000E+00   3.06070212143401E-10  -1.89245384971599E-19  -3.80556376123776E-08
     -3.77495674004235E-08  -3.17821245165544E-15   0.00000000000000E+00   0.00000000000000E+00   0.00000000000000E+00
      2.31672584051687E-10  -1.53130855458923E-19  -2.68124940959058E-08  -2.65808215120073E-08  -3.17842443685713E-15
      1.20000000000000E-12
      0.00000000000000E+00   0.00000000000000E+00   0.00000000000000E+00   1.57840843082466E-10  -1.53130331344012E-19
     -1.95079639868748E-08  -1.93501231439454E-08  -3.17916439127325E-15   2.00000000000000E+02   2.00000000000000E+02
      0.00000000000000E+00  -6.01866948145619E-07   6.92357205371483E-07   1.33013361009517E-13   9.04903902392252E-08
      1.68179986932345E-14   0.00000000000000E+00   0.00000000000000E+00   0.00000000000000E+00  -9.24360941025418E-12
     -1.53722452894804E-19  -3.29297070557753E-09  -3.30221431514151E-09  -3.20733060193040E-15   0.00000000000000E+00
      0.00000000000000E+00   0.00000000000000E+00  -4.50167783293573E-09  -1.63460798786298E-11  -3.71817884309947E-08
     -4.16998123438091E-08   7.04860642920058E-15   0.00000000000000E+00   0.00000000000000E+00   0.00000000000000E+00
     -6.21614384434758E-09  -7.76510229394144E-20   6.69334834969610E-07   6.63118691125185E-07  -1.58942693943889E-15
      0.00000000000000E+00   0.00000000000000E+00   0.00000000000000E+00   4.52352913754449E-09  -1.53732484797888E-19
     -4.90753834399991E-07  -4.86230305262600E-07  -3.17785455554671E-15   0.00000000000000E+00   0.00000000000000E+00
      0.00000000000000E+00   8.01875222992482E-10  -1.53726489057436E-19  -1.03366910639456E-07  -1.02565035416617E-07
     -3.17806170027944E-15   0.00000000000000E+00   0.00000000000000E+00   0.00000000000000E+00   3.51691223699905E-10
     -1.53724636336896E-19  -4.97002501244506E-08  -4.93485589009045E-08  -3.17812493583344E-15   0.00000000000000E+00
      0.00000000000000E+00   0.00000000000000E+00   2.08159977778067E-10  -1.89245322122966E-19  -3.03143371783081E-08
     -3.01061772007193E-08  -3.17821546122098E-15   0.00000000000000E+00   0.00000000000000E+00   0.00000000000000E+00
      1.56618179808580E-10  -1.53130807286731E-19  -2.11634729869445E-08  -2.10068548072890E-08  -3.17842653691203E-15
      1.30000000000000E-12
      0.00000000000000E+00   0.00000000000000E+00   0.00000000000000E+00   1.10714700971144E-10  -1.53130294888133E-19
     -1.54404407772475E-08  -1.53297260764294E-08  -3.17916592386020E-15   2.00000000000000E+02   2.00000000000000E+02
      0.00000000000000E+00  -5.41311577448075E-07   6.27192730323984E-07   1.32394648917267E-13   8.58812852705573E-08
      1.68180072796387E-14   0.00000000000000E+00   0.00000000000000E+00   0.00000000000000E+00  -1.88940222226803E-12
     -1.53722448544295E-19  -3.56744819413926E-09  -3.56933759651525E-09  -3.20733095770340E-15   0.00000000000000E+00
      0.00000000000000E+00   0.00000000000000E+00  -4.06771941370451E-09  -1.63536362371596E-11  -2.78023549736585E-08
     -3.18864280236002E-08   7.04860323327925E-15   0.00000000000000E+00   0.00000000000000E+00   0.00000000000000E+00
     -4.19381960821629E-09  -7.76517238870859E-20   5.04215941497792E-07   5.00022121889498E-07  -1.58937696167479E-15
      0.00000000000000E+00   0.00000000000000E+00   0.00000000000000E+00   3.05072221824012E-09  -1.53731585026985E-19
     -3.73899502775568E-07  -3.70848780557482E-07  -3.17789161685133E-15   0.00000000000000E+00   0.00000000000000E+00
      0.00000000000000E+00   5.54947891468214E-10  -1.53726325439678E-19  -8.25242567252834E-08  -8.19693088339689E-08
     -3.17806989253833E-15   0.00000000000000E+00   0.00000000000000E+00   0.00000000000000E+00   2.45837157009020E-10
     -1.53724562509810E-19  -4.06283497914253E-08  -4.03825126345700E-08  -3.17812897211794E-15   0.00000000000000E+00
      0.00000000000000E+00   0.00000000000000E+00   1.45025015730263E-10  -1.89245277324067E-19  -2.49176915774791E-08
     -2.47726665619380E-08  -3.17821793742957E-15   0.00000000000000E+00   0.00000000000000E+00   0.00000000000000E+00
      1.08260486838012E-10  -1.53130772854004E-19  -1.72529073664606E-08  -1.71446468797757E-08  -3.17842825074234E-15
      1.40000000000000E-12