DF-ISE text

Info {
  version   = 1.0
  type      = xyplot
  datasets  = [
    "time"
    "PIX7 OuterVoltage" "PIX7 InnerVoltage" "PIX7 QuasiFermiPotential" "PIX7 DisplacementCurrent" "PIX7 eCurrent"
    "PIX7 hCurrent" "PIX7 TotalCurrent" "PIX7 Charge" "BACK OuterVoltage" "BACK InnerVoltage"
    "BACK QuasiFermiPotential" "BACK DisplacementCurrent" "BACK eCurrent" "BACK hCurrent" "BACK TotalCurrent"
    "BACK Charge" "PIX8 OuterVoltage" "PIX8 InnerVoltage" "PIX8 QuasiFermiPotential" "PIX8 DisplacementCurrent"
    "PIX8 eCurrent" "PIX8 hCurrent" "PIX8 TotalCurrent" "PIX8 Charge" "PIX9 OuterVoltage"
    "PIX9 InnerVoltage" "PIX9 QuasiFermiPotential" "PIX9 DisplacementCurrent" "PIX9 eCurrent" "PIX9 hCurrent"
    "PIX9 TotalCurrent" "PIX9 Charge" "PIX1 OuterVoltage" "PIX1 InnerVoltage" "PIX1 QuasiFermiPotential"
    "PIX1 DisplacementCurrent" "PIX1 eCurrent" "PIX1 hCurrent" "PIX1 TotalCurrent" "PIX1 Charge"
    "PIX2 OuterVoltage" "PIX2 InnerVoltage" "PIX2 QuasiFermiPotential" "PIX2 DisplacementCurrent" "PIX2 eCurrent"
    "PIX2 hCurrent" "PIX2 TotalCurrent" "PIX2 Charge" "PIX3 OuterVoltage" "PIX3 InnerVoltage"
    "PIX3 QuasiFermiPotential" "PIX3 DisplacementCurrent" "PIX3 eCurrent" "PIX3 hCurrent" "PIX3 TotalCurrent"
    "PIX3 Charge" "PIX4 OuterVoltage" "PIX4 InnerVoltage" "PIX4 QuasiFermiPotential" "PIX4 DisplacementCurrent"
    "PIX4 eCurrent" "PIX4 hCurrent" "PIX4 TotalCurrent" "PIX4 Charge" "PIX5 OuterVoltage"
    "PIX5 InnerVoltage" "PIX5 QuasiFermiPotential" "PIX5 DisplacementCurrent" "PIX5 eCurrent" "PIX5 hCurrent"
    "PIX5 TotalCurrent" "PIX5 Charge" "PIX6 OuterVoltage" "PIX6 InnerVoltage" "PIX6 QuasiFermiPotential"
    "PIX6 DisplacementCurrent" "PIX6 eCurrent" "PIX6 hCurrent" "PIX6 TotalCurrent" "PIX6 Charge" ]
  functions = [
    Time
    OuterVoltage InnerVoltage QuasiFermiPotential DisplacementCurrent eCurrent
    hCurrent TotalCurrent Charge OuterVoltage InnerVoltage
    QuasiFermiPotential DisplacementCurrent eCurrent hCurrent TotalCurrent
    Charge OuterVoltage InnerVoltage QuasiFermiPotential DisplacementCurrent
    eCurrent hCurrent TotalCurrent Charge OuterVoltage
    InnerVoltage QuasiFermiPotential DisplacementCurrent eCurrent hCurrent
    TotalCurrent Charge OuterVoltage InnerVoltage QuasiFermiPotential
    DisplacementCurrent eCurrent hCurrent TotalCurrent Charge
    OuterVoltage InnerVoltage QuasiFermiPotential DisplacementCurrent eCurrent
    hCurrent TotalCurrent Charge OuterVoltage InnerVoltage
    QuasiFermiPotential DisplacementCurrent eCurrent hCurrent TotalCurrent
    Charge OuterVoltage InnerVoltage QuasiFermiPotential DisplacementCurrent
    eCurrent hCurrent TotalCurrent Charge OuterVoltage
    InnerVoltage QuasiFermiPotential DisplacementCurrent eCurrent hCurrent
    TotalCurrent Charge OuterVoltage InnerVoltage QuasiFermiPotential
    DisplacementCurrent eCurrent hCurrent TotalCurrent Charge ]
}

Data {
      0.00000000000000E+00
      0.00000000000000E+00   0.00000000000000E+00   0.00000000000000E+00  -7.41639767642022E-30  -1.53131048027052E-19
     -4.31859537534063E-15  -4.31874850638866E-15  -3.17924148555976E-15   2.00000000000000E+02   2.00000000000000E+02
      0.00000000000000E+00   4.75915183161003E-25   1.72345153685824E-11   9.18008895593748E-15   1.72436954575388E-11
      1.68177494282920E-14   0.00000000000000E+00   0.00000000000000E+00   0.00000000000000E+00  -1.07125744214959E-29
     -1.53722664892220E-19  -4.81527078308231E-15  -4.81542450574721E-15  -3.20780957579879E-15   0.00000000000000E+00
      0.00000000000000E+00   0.00000000000000E+00  -3.37528498695747E-27  -1.83108695516273E-11   1.10036923121689E-12
     -1.72105003204104E-11   7.07088673081416E-15   0.00000000000000E+00   0.00000000000000E+00   0.00000000000000E+00
      2.88415465194120E-30  -7.62087392901926E-20  -2.46869454736120E-15  -2.46877075610049E-15  -1.61914747595537E-15
      0.00000000000000E+00   0.00000000000000E+00   0.00000000000000E+00  -1.64808837253783E-30  -1.53788914581493E-19
     -4.32533135810606E-15  -4.32548514702064E-15  -3.17225982985196E-15   0.00000000000000E+00   0.00000000000000E+00
      0.00000000000000E+00  -1.07125744214959E-29  -1.53740597260605E-19  -4.31529881004926E-15  -4.31545255064653E-15
     -3.17675365052508E-15   0.00000000000000E+00   0.00000000000000E+00   0.00000000000000E+00  -8.24044186268913E-30
     -1.53731158912797E-19  -4.31641513268356E-15  -4.31656886384248E-15  -3.17760403665464E-15   0.00000000000000E+00
      0.00000000000000E+00   0.00000000000000E+00  -1.31847069803026E-29  -1.89248307215442E-19  -4.31692432986247E-15
     -4.31711357816970E-15  -3.17799024863341E-15   0.00000000000000E+00   0.00000000000000E+00   0.00000000000000E+00
     -1.23606627940337E-29  -1.53132060281153E-19  -4.31742008837359E-15  -4.31757322043388E-15  -3.17836422924232E-15
      1.00000000000000E-13
      0.00000000000000E+00   0.00000000000000E+00   0.00000000000000E+00   3.86030676376260E-07  -1.53106462251441E-19
      2.69183785071500E-06   3.07786852709111E-06  -3.17893369871408E-15   2.00000000000000E+02   2.00000000000000E+02
      0.00000000000000E+00  -1.97657881334704E-04   2.02193898063919E-04   1.58189615016740E-13   4.53601688740474E-06
      1.68182030282563E-14   0.00000000000000E+00   0.00000000000000E+00   0.00000000000000E+00   2.20181465037418E-07
     -1.53684546604463E-19   4.41056817068910E-06   4.63074963572637E-06  -3.20734650053313E-15   0.00000000000000E+00
      0.00000000000000E+00   0.00000000000000E+00  -2.11304221255074E-04  -1.61976091877178E-11  -4.25016362176075E-06
     -2.15554401074444E-04   7.04933129560783E-15   0.00000000000000E+00   0.00000000000000E+00   0.00000000000000E+00
     -3.13086322087117E-05  -7.58565192993451E-20   2.15613192390114E-04   1.84304560181402E-04  -1.60071702800916E-15
      0.00000000000000E+00   0.00000000000000E+00   0.00000000000000E+00   1.38284332446368E-05  -1.53710945545376E-19
      1.30668963932967E-06   1.51351228839663E-05  -3.17074631469780E-15   0.00000000000000E+00   0.00000000000000E+00
      0.00000000000000E+00   2.99724944320271E-06  -1.53723941059805E-19  -2.67758216060376E-07   2.72949122714218E-06
     -3.17648070038017E-15   0.00000000000000E+00   0.00000000000000E+00   0.00000000000000E+00   1.31484567736022E-06
     -1.53716927209794E-19   5.59841481473612E-07   1.87468715883367E-06  -3.17741656750037E-15   0.00000000000000E+00
      0.00000000000000E+00   0.00000000000000E+00   7.59307636731748E-07  -1.89231341773173E-19   1.41307794273683E-06
      2.17238557946839E-06  -3.17777300988641E-15   0.00000000000000E+00   0.00000000000000E+00   0.00000000000000E+00
      5.09389183319221E-07  -1.53112994493352E-19   1.92786096215314E-06   2.43725014547221E-06  -3.17812050414307E-15
      2.00000000000000E-13
      0.00000000000000E+00   0.00000000000000E+00   0.00000000000000E+00  -7.90288321584412E-08  -1.53134155743440E-19
     -5.38239061706674E-07  -6.17267893865269E-07  -3.17899542540739E-15   2.00000000000000E+02   2.00000000000000E+02
      0.00000000000000E+00  -1.91623021784295E-05   1.87664589976345E-05   1.48510534616482E-13  -3.95843032284537E-07
      1.68181634422287E-14   0.00000000000000E+00   0.00000000000000E+00   0.00000000000000E+00  -1.02327465380497E-07
     -1.53719265869437E-19   3.28499160724962E-07   2.26171695344312E-07  -3.20732388277101E-15   0.00000000000000E+00
      0.00000000000000E+00   0.00000000000000E+00  -4.62779440282431E-08  -1.62333680932563E-11  -2.67668701307106E-06
     -2.72298119046739E-06   7.04905899787495E-15   0.00000000000000E+00   0.00000000000000E+00   0.00000000000000E+00
     -4.43645823796901E-06  -7.72760482144993E-20   4.71485246313549E-05   4.27120663933858E-05  -1.59644583479946E-15
      0.00000000000000E+00   0.00000000000000E+00   0.00000000000000E+00  -6.99870319529332E-07  -1.53942524205135E-19
     -2.63108036625617E-05  -2.70106739820912E-05  -3.17344737206968E-15   0.00000000000000E+00   0.00000000000000E+00
      0.00000000000000E+00  -1.56443744195468E-07  -1.53779390261267E-19  -6.72199948236643E-06  -6.87844322656205E-06
     -3.17716854235637E-15   0.00000000000000E+00   0.00000000000000E+00   0.00000000000000E+00  -7.68544525304945E-08
     -1.53745340907511E-19  -2.69779563604046E-06  -2.77465008857111E-06  -3.17769403153662E-15   0.00000000000000E+00
      0.00000000000000E+00   0.00000000000000E+00  -6.81262536827391E-08  -1.89256675667749E-19  -1.49815742325345E-06
     -1.56628367693638E-06  -3.17792963777647E-15   0.00000000000000E+00   0.00000000000000E+00   0.00000000000000E+00
     -6.81419758724011E-08  -1.53137499815838E-19  -9.03953021995385E-07  -9.72094997867939E-07  -3.17821771338661E-15
      3.00000000000000E-13
      0.00000000000000E+00   0.00000000000000E+00   0.00000000000000E+00   6.15791484453052E-09  -1.53132577568154E-19
     -3.20895854892340E-07  -3.14737940047963E-07  -3.17902689902928E-15   2.00000000000000E+02   2.00000000000000E+02
      0.00000000000000E+00  -6.12963982520742E-06   6.47160231020607E-06   1.44240861803576E-13   3.41962629239515E-07
      1.68181976367672E-14   0.00000000000000E+00   0.00000000000000E+00   0.00000000000000E+00  -1.86245676197176E-09
     -1.53720369868833E-19   2.23567037803358E-07   2.21704581041232E-07  -3.20730171154267E-15   0.00000000000000E+00
      0.00000000000000E+00   0.00000000000000E+00  -2.96237843463254E-09  -1.62447946865800E-11  -1.58688011457709E-06
     -1.58985873780641E-06   7.04890000911354E-15   0.00000000000000E+00   0.00000000000000E+00   0.00000000000000E+00
     -5.50047646549550E-07  -7.74570280498085E-20   2.52095318884451E-05   2.46594842418955E-05  -1.59397990300994E-15
      0.00000000000000E+00   0.00000000000000E+00   0.00000000000000E+00   2.36121258420426E-07  -1.53869770757925E-19
     -1.74634599813032E-05  -1.72273387228829E-05  -3.17517009114322E-15   0.00000000000000E+00   0.00000000000000E+00
      0.00000000000000E+00   8.18080955129718E-08  -1.53754719557795E-19  -3.66778317134024E-06  -3.58597507582743E-06
     -3.17752713669171E-15   0.00000000000000E+00   0.00000000000000E+00   0.00000000000000E+00   3.63221107744520E-08
     -1.53734718323399E-19  -1.35779314480188E-06  -1.32147103402758E-06  -3.17782617733655E-15   0.00000000000000E+00
      0.00000000000000E+00   0.00000000000000E+00   2.02566847051379E-08  -1.89250733257918E-19  -7.39917879626285E-07
     -7.19661194921337E-07  -3.17800160323547E-15   0.00000000000000E+00   0.00000000000000E+00   0.00000000000000E+00
      1.17110927273643E-08  -1.53134228811964E-19  -4.75819839515102E-07  -4.64108746787891E-07  -3.17826412389191E-15
      4.00000000000000E-13
      0.00000000000000E+00   0.00000000000000E+00   0.00000000000000E+00   3.75590570806159E-09  -1.53131597941611E-19
     -1.87061101933400E-07  -1.83305196225491E-07  -3.17904522932295E-15   2.00000000000000E+02   2.00000000000000E+02
      0.00000000000000E+00  -3.34515732276818E-06   3.77601333784062E-06   1.41642738761444E-13   4.30856156715181E-07
      1.68182407206585E-14   0.00000000000000E+00   0.00000000000000E+00   0.00000000000000E+00  -1.14485010690146E-09
     -1.53720988975379E-19   1.64425326454736E-07   1.63280476347681E-07  -3.20728538261170E-15   0.00000000000000E+00
      0.00000000000000E+00   0.00000000000000E+00  -3.30108610145704E-09  -1.62556207363837E-11  -9.55660908860289E-07
     -9.58978250582482E-07   7.04880410624227E-15   0.00000000000000E+00   0.00000000000000E+00   0.00000000000000E+00
     -2.50643258328702E-07  -7.75385904126247E-20   1.52042688775340E-05   1.49536256192053E-05  -1.59248455913102E-15
      0.00000000000000E+00   0.00000000000000E+00   0.00000000000000E+00   1.64377490992495E-07  -1.53818813215533E-19
     -1.12170494119172E-05  -1.10526719209249E-05  -3.17627534041443E-15   0.00000000000000E+00   0.00000000000000E+00
      0.00000000000000E+00   4.23378350739123E-08  -1.53741972447024E-19  -2.07234600712811E-06  -2.03000817205435E-06
     -3.17773013381673E-15   0.00000000000000E+00   0.00000000000000E+00   0.00000000000000E+00   1.71310096462197E-08
     -1.53729763267415E-19  -7.21794985303854E-07  -7.04663975657788E-07  -3.17789664222250E-15   0.00000000000000E+00
      0.00000000000000E+00   0.00000000000000E+00   9.52816086260055E-09  -1.89247975153263E-19  -3.82360244509715E-07
     -3.72832083647303E-07  -3.17803888566713E-15   0.00000000000000E+00   0.00000000000000E+00   0.00000000000000E+00
      6.15953618661600E-09  -1.53132534331505E-19  -2.51462189368079E-07  -2.45302653181616E-07  -3.17828865371428E-15
      5.00000000000000E-13
      0.00000000000000E+00   0.00000000000000E+00   0.00000000000000E+00   2.09415011673795E-09  -1.53131059515934E-19
     -1.13204882754221E-07  -1.11110732637636E-07  -3.17905634013305E-15   2.00000000000000E+02   2.00000000000000E+02
      0.00000000000000E+00  -2.23878815133006E-06   2.62679595063853E-06   1.39787008779501E-13   3.88007939095483E-07
      1.68182795197279E-14   0.00000000000000E+00   0.00000000000000E+00   0.00000000000000E+00  -1.06875757111259E-09
     -1.53721466796953E-19   1.14928445091696E-07   1.13859687520430E-07  -3.20727399568570E-15   0.00000000000000E+00
      0.00000000000000E+00   0.00000000000000E+00  -5.45756273990125E-09  -1.62672103210614E-11  -5.84100106293303E-07
     -5.89573936243525E-07   7.04874514245389E-15   0.00000000000000E+00   0.00000000000000E+00   0.00000000000000E+00
     -1.45024659910987E-07  -7.75849805550732E-20   9.44615258458988E-06   9.30112792467881E-06  -1.59155446640242E-15
      0.00000000000000E+00   0.00000000000000E+00   0.00000000000000E+00   1.03852740493892E-07  -1.53786648967943E-19
     -7.25147517085260E-06  -7.14762243035886E-06  -3.17699008270540E-15   0.00000000000000E+00   0.00000000000000E+00
      0.00000000000000E+00   2.21161475093849E-08  -1.53735372598596E-19  -1.23806931416054E-06  -1.21595316665131E-06
     -3.17785172510916E-15   0.00000000000000E+00   0.00000000000000E+00   0.00000000000000E+00   8.43838015127098E-09
     -1.53727371889113E-19  -4.09765053037005E-07  -4.01326672885888E-07  -3.17793677324517E-15   0.00000000000000E+00
      0.00000000000000E+00   0.00000000000000E+00   4.66619651419103E-09  -1.89246657690342E-19  -2.08411743664976E-07
     -2.03745547150974E-07  -3.17805925937079E-15   0.00000000000000E+00   0.00000000000000E+00   0.00000000000000E+00
      3.18957500336940E-09  -1.53131681613072E-19  -1.36852640370643E-07  -1.33663065367427E-07  -3.17830201953024E-15
      6.00000000000000E-13
      0.00000000000000E+00   0.00000000000000E+00   0.00000000000000E+00   1.27287639994620E-09  -1.53130727602002E-19
     -6.84356611203680E-08  -6.71627847205749E-08  -3.17906305612284E-15   2.00000000000000E+02   2.00000000000000E+02
      0.00000000000000E+00  -1.65861067835979E-06   1.98417134773699E-06   1.38338798400883E-13   3.25560807715989E-07
      1.68183120740843E-14   0.00000000000000E+00   0.00000000000000E+00   0.00000000000000E+00  -7.73172111569146E-10
     -1.53721786699094E-19   8.02199614167743E-08   7.94467893050514E-08  -3.20726604999981E-15   0.00000000000000E+00
      0.00000000000000E+00   0.00000000000000E+00  -6.52445360556828E-09  -1.62788931501821E-11  -3.61682289476803E-07
     -3.68223021975522E-07   7.04870831295385E-15   0.00000000000000E+00   0.00000000000000E+00   0.00000000000000E+00
     -8.75235306308887E-08  -7.76124410937980E-20   5.98143646188103E-06   5.89391293125007E-06  -1.59096509615411E-15
      0.00000000000000E+00   0.00000000000000E+00   0.00000000000000E+00   6.55109689533900E-08  -1.53766405731102E-19
     -4.74447930495256E-06  -4.67896833599932E-06  -3.17745795826025E-15   0.00000000000000E+00   0.00000000000000E+00
      0.00000000000000E+00   1.23201035039803E-08  -1.53731723989681E-19  -7.73769029635042E-07  -7.61448926131216E-07
     -3.17792786576114E-15   0.00000000000000E+00   0.00000000000000E+00   0.00000000000000E+00   4.54887219570295E-09
     -1.53726102221406E-19  -2.42437558807988E-07  -2.37888686612439E-07  -3.17796056038255E-15   0.00000000000000E+00
      0.00000000000000E+00   0.00000000000000E+00   2.50271167120818E-09  -1.89245962403681E-19  -1.15675911894614E-07
     -1.13173200223595E-07  -3.17807057579153E-15   0.00000000000000E+00   0.00000000000000E+00   0.00000000000000E+00
      1.77231025960761E-09  -1.53131213424027E-19  -7.38278829427429E-08  -7.20555726832884E-08  -3.17830922456596E-15
      7.00000000000000E-13
      0.00000000000000E+00   0.00000000000000E+00   0.00000000000000E+00   8.02478189338089E-10  -1.53130513106373E-19
     -4.02002859928146E-08  -3.93978078036296E-08  -3.17906699559744E-15   2.00000000000000E+02   2.00000000000000E+02
      0.00000000000000E+00  -1.30434606840379E-06   1.57323086652487E-06   1.37145474587772E-13   2.68884935266555E-07
      1.68183389608536E-14   0.00000000000000E+00   0.00000000000000E+00   0.00000000000000E+00  -5.21450878834736E-10
     -1.53721990655659E-19   5.71373170398162E-08   5.66158661608278E-08  -3.20726038737171E-15   0.00000000000000E+00
      0.00000000000000E+00   0.00000000000000E+00  -6.74272211705397E-09  -1.62901633266294E-11  -2.26866094842232E-07
     -2.33625107122612E-07   7.04868494279832E-15   0.00000000000000E+00   0.00000000000000E+00   0.00000000000000E+00
     -5.38842179824831E-08  -7.76289366283885E-20   3.85182807608453E-06   3.79794385810197E-06  -1.59058532354821E-15
      0.00000000000000E+00   0.00000000000000E+00   0.00000000000000E+00   4.15190712571345E-08  -1.53753614877706E-19
     -3.15393423408534E-06  -3.11241516282836E-06  -3.17776917762221E-15   0.00000000000000E+00   0.00000000000000E+00
      0.00000000000000E+00   7.22429418608674E-09  -1.53729596325215E-19  -5.01896133929880E-07  -4.94671839743947E-07
     -3.17797732856005E-15   0.00000000000000E+00   0.00000000000000E+00   0.00000000000000E+00   2.60818267802132E-09
     -1.53725380332733E-19  -1.46952538073012E-07  -1.44344355395144E-07  -3.17797499302907E-15   0.00000000000000E+00
      0.00000000000000E+00   0.00000000000000E+00   1.41516920854228E-09  -1.89245572685547E-19  -6.35156378695254E-08
     -6.21004686611723E-08  -3.17807678490725E-15   0.00000000000000E+00   0.00000000000000E+00   0.00000000000000E+00
      1.01913740273428E-09  -1.53130945389950E-19  -3.79090553517230E-08  -3.68899179491419E-08  -3.17831291301585E-15
      8.00000000000000E-13
      0.00000000000000E+00   0.00000000000000E+00   0.00000000000000E+00   5.11190196023265E-10  -1.53130373014233E-19
     -2.22032318727608E-08  -2.16920416768907E-08  -3.17906916448335E-15   2.00000000000000E+02   2.00000000000000E+02
      0.00000000000000E+00  -1.06711541573671E-06   1.28967827808079E-06   1.36125708537779E-13   2.22562998469786E-07
      1.68183612154289E-14   0.00000000000000E+00   0.00000000000000E+00   0.00000000000000E+00  -3.46887893008568E-10
     -1.53722118012150E-19   4.19194473152152E-08   4.15725594220530E-08  -3.20725622904935E-15   0.00000000000000E+00
      0.00000000000000E+00   0.00000000000000E+00  -6.49700660165197E-09  -1.63007876803121E-11  -1.44287331824417E-07
     -1.50800639213749E-07   7.04866985487352E-15   0.00000000000000E+00   0.00000000000000E+00   0.00000000000000E+00
     -3.36541136524593E-08  -7.76388991867812E-20   2.52298308664556E-06   2.48932897299302E-06  -1.59033641301176E-15
      0.00000000000000E+00   0.00000000000000E+00   0.00000000000000E+00   2.65088807652426E-08  -1.53745479046889E-19
     -2.13789962292402E-06  -2.11139074215893E-06  -3.17798029395571E-15   0.00000000000000E+00   0.00000000000000E+00
      0.00000000000000E+00   4.40796748866266E-09  -1.53728302434778E-19  -3.36220865318947E-07  -3.31812897830438E-07
     -3.17801050536579E-15   0.00000000000000E+00   0.00000000000000E+00   0.00000000000000E+00   1.55609310577215E-09
     -1.53724950609761E-19  -9.02113203810223E-08  -8.86552272754039E-08  -3.17798385672335E-15   0.00000000000000E+00
      0.00000000000000E+00   0.00000000000000E+00   8.22811822550368E-10  -1.89245346405046E-19  -3.33444980020051E-08
     -3.25216861796440E-08  -3.17808003612320E-15   0.00000000000000E+00   0.00000000000000E+00   0.00000000000000E+00
      5.93578311552233E-10  -1.53130788041006E-19  -1.71848748539208E-08  -1.65912965425217E-08  -3.17831457158999E-15
      9.00000000000000E-13
      0.00000000000000E+00   0.00000000000000E+00   0.00000000000000E+00   3.25812288617299E-10  -1.53130280744887E-19
     -1.07375146588385E-08  -1.04117023703743E-08  -3.17907020532694E-15   2.00000000000000E+02   2.00000000000000E+02
      0.00000000000000E+00  -8.98459298189568E-07   1.08456167992519E-06   1.35231268545144E-13   1.86102516966889E-07
      1.68183798239563E-14   0.00000000000000E+00   0.00000000000000E+00   0.00000000000000E+00  -2.32139329427120E-10
     -1.53722197982590E-19   3.18118761234606E-08   3.15797367938797E-08  -3.20725306999049E-15   0.00000000000000E+00
      0.00000000000000E+00   0.00000000000000E+00  -6.03885753994721E-09  -1.63107008350894E-11  -9.31908103215024E-08
     -9.92459785622847E-08   7.04865992234873E-15   0.00000000000000E+00   0.00000000000000E+00   0.00000000000000E+00
     -2.12831231559424E-08  -7.76449075174669E-20   1.68307823953537E-06   1.66179511637935E-06  -1.59017025634335E-15
      0.00000000000000E+00   0.00000000000000E+00   0.00000000000000E+00   1.70840468867053E-08  -1.53740259845084E-19
     -1.48295883562959E-06  -1.46587478874304E-06  -3.17812685829415E-15   0.00000000000000E+00   0.00000000000000E+00
      0.00000000000000E+00   2.77405364765812E-09  -1.53727490005088E-19  -2.32052654783235E-07  -2.29278601135730E-07
     -3.17803342867210E-15   0.00000000000000E+00   0.00000000000000E+00   0.00000000000000E+00   9.52954701884769E-10
     -1.53724686958567E-19  -5.55820034535678E-08  -5.46290487518368E-08  -3.17798931777212E-15   0.00000000000000E+00
      0.00000000000000E+00   0.00000000000000E+00   4.85377355109860E-10  -1.89245213168493E-19  -1.56454827257115E-08
     -1.51601053707909E-08  -3.17808155116619E-15   0.00000000000000E+00   0.00000000000000E+00   0.00000000000000E+00
      3.46454019524378E-10  -1.53130695642137E-19  -5.22359923966107E-09  -4.87714522028983E-09  -3.17831505873967E-15
      1.00000000000000E-12
      0.00000000000000E+00   0.00000000000000E+00   0.00000000000000E+00   2.06941009398706E-10  -1.53130219935867E-19
     -3.46870813986660E-09  -3.26176713062103E-09  -3.17907053117110E-15   2.00000000000000E+02   2.00000000000000E+02
      0.00000000000000E+00  -7.73398163963084E-07   9.31257898147444E-07   1.34431317863178E-13   1.57859868615678E-07
      1.68183956082188E-14   0.00000000000000E+00   0.00000000000000E+00   0.00000000000000E+00  -1.57485560319409E-10
     -1.53722247248802E-19   2.50032668543061E-08   2.48457812938329E-08  -3.20725058431242E-15   0.00000000000000E+00
      0.00000000000000E+00   0.00000000000000E+00  -5.51010592863302E-09  -1.63199200053114E-11  -6.12322219922638E-08
     -6.67586478409021E-08   7.04865323858898E-15   0.00000000000000E+00   0.00000000000000E+00   0.00000000000000E+00
     -1.36249465325958E-08  -7.76484985926215E-20   1.14558234903816E-06   1.13195740250549E-06  -1.59005708386435E-15
      0.00000000000000E+00   0.00000000000000E+00   0.00000000000000E+00   1.11325778878089E-08  -1.53736878002134E-19
     -1.05614902348274E-06  -1.04501644559509E-06  -3.17823133652044E-15   0.00000000000000E+00   0.00000000000000E+00
      0.00000000000000E+00   1.78975552951868E-09  -1.53726965020865E-19  -1.64885884387057E-07  -1.63096128857692E-07
     -3.17804973368061E-15   0.00000000000000E+00   0.00000000000000E+00   0.00000000000000E+00   5.94410913161483E-10
     -1.53724520830344E-19  -3.40488086602348E-08  -3.34543977472270E-08  -3.17799266133586E-15   0.00000000000000E+00
      0.00000000000000E+00   0.00000000000000E+00   2.88439494110540E-10  -1.89245133281923E-19  -5.19569428388851E-09
     -4.90725478996721E-09  -3.17808204091354E-15   0.00000000000000E+00   0.00000000000000E+00   0.00000000000000E+00
      2.01420172950582E-10  -1.53130640697251E-19   1.63016944404624E-09   1.83158961684369E-09  -3.17831487500936E-15
      1.10000000000000E-12
      0.00000000000000E+00   0.00000000000000E+00   0.00000000000000E+00   1.30691007057933E-10  -1.53130179788381E-19
      1.10318980298539E-09   1.23388080989019E-09  -3.17907040744625E-15   2.00000000000000E+02   2.00000000000000E+02
      0.00000000000000E+00  -6.77616321648618E-07   8.13723701883148E-07   1.33705032963698E-13   1.36107513939563E-07
      1.68184092172456E-14   0.00000000000000E+00   0.00000000000000E+00   0.00000000000000E+00  -1.08682796908740E-10
     -1.53722278765936E-19   2.03361764719353E-08   2.02274936748728E-08  -3.20724856045103E-15   0.00000000000000E+00
      0.00000000000000E+00   0.00000000000000E+00  -4.98433556661570E-09  -1.63285002112760E-11  -4.10016663884648E-08
     -4.60023304552918E-08   7.04864863055783E-15   0.00000000000000E+00   0.00000000000000E+00   0.00000000000000E+00
     -8.83524494026145E-09  -7.76506001216565E-20   7.97123821581721E-07   7.88288576641382E-07  -1.58997827864269E-15
      0.00000000000000E+00   0.00000000000000E+00   0.00000000000000E+00   7.34830791152101E-09  -1.53734661433978E-19
     -7.74430731944304E-07  -7.67082424032937E-07  -3.17830802114778E-15   0.00000000000000E+00   0.00000000000000E+00
      0.00000000000000E+00   1.17945256707537E-09  -1.53726619225571E-19  -1.20637152481313E-07  -1.19457699914391E-07
     -3.17806167480855E-15   0.00000000000000E+00   0.00000000000000E+00   0.00000000000000E+00   3.76252215376592E-10
     -1.53724414717705E-19  -2.04621332275197E-08  -2.00858810122968E-08  -3.17799466803316E-15   0.00000000000000E+00
      0.00000000000000E+00   0.00000000000000E+00   1.71949287138837E-10  -1.89245084874032E-19   9.83741975854502E-10
      1.15569126280409E-09  -3.17808192435858E-15   0.00000000000000E+00   0.00000000000000E+00   0.00000000000000E+00
      1.16000744882895E-10  -1.53130607900523E-19   5.49917832071207E-09   5.61517906544184E-09  -3.17831431291547E-15
      1.20000000000000E-12
      0.00000000000000E+00   0.00000000000000E+00   0.00000000000000E+00   8.17889356477359E-11  -1.53130153206081E-19
      3.94523173147293E-09   4.02702066696754E-09  -3.17907000440440E-15   2.00000000000000E+02   2.00000000000000E+02
      0.00000000000000E+00  -6.02280626010244E-07   7.21617334995016E-07   1.33037752896233E-13   1.19336842022525E-07
      1.68184211492054E-14   0.00000000000000E+00   0.00000000000000E+00   0.00000000000000E+00  -7.64854872915151E-11
     -1.53722298427471E-19   1.70734046126795E-08   1.69969191252343E-08  -3.20724685963688E-15   0.00000000000000E+00
      0.00000000000000E+00   0.00000000000000E+00  -4.49602257993722E-09  -1.63365098686877E-11  -2.80183386643716E-08
     -3.25306977541775E-08   7.04864536983043E-15   0.00000000000000E+00   0.00000000000000E+00   0.00000000000000E+00
     -5.81069532892312E-09  -7.76517785516306E-20   5.67997599437407E-07   5.62186904108406E-07  -1.58992208393291E-15
      0.00000000000000E+00   0.00000000000000E+00   0.00000000000000E+00   4.92297265626608E-09  -1.53733188495131E-19
     -5.85710173731130E-07  -5.80787201075017E-07  -3.17836607611102E-15   0.00000000000000E+00   0.00000000000000E+00
      0.00000000000000E+00   7.92595768862467E-10  -1.53726386851016E-19  -9.09062589791697E-08  -9.01136632104610E-08
     -3.17807068150407E-15   0.00000000000000E+00   0.00000000000000E+00   0.00000000000000E+00   2.41264692096320E-10
     -1.53724344791825E-19  -1.17783243018547E-08  -1.15370596099121E-08  -3.17799581983715E-15   0.00000000000000E+00
      0.00000000000000E+00   0.00000000000000E+00   1.02449484682087E-10  -1.89245055190546E-19   4.62721123444153E-09
      4.72966071893438E-09  -3.17808145040092E-15   0.00000000000000E+00   0.00000000000000E+00   0.00000000000000E+00
      6.56557131280082E-11  -1.53130588218157E-19   7.62561926973694E-09   7.69127498271182E-09  -3.17831354320857E-15
      1.30000000000000E-12
      0.00000000000000E+00   0.00000000000000E+00   0.00000000000000E+00   5.04936873015395E-11  -1.53130135534201E-19
      5.68001400676865E-09   5.73050769391706E-09  -3.17906943101162E-15   2.00000000000000E+02   2.00000000000000E+02
      0.00000000000000E+00  -5.41656676255589E-07   6.47983785381472E-07   1.32418803774829E-13   1.06327241544687E-07
      1.68184317802053E-14   0.00000000000000E+00   0.00000000000000E+00   0.00000000000000E+00  -5.49865743088310E-11
     -1.53722310629927E-19   1.47427488522716E-08   1.46877622778091E-08  -3.20724538972949E-15   0.00000000000000E+00
      0.00000000000000E+00   0.00000000000000E+00  -4.05819712785290E-09  -1.63440164620756E-11  -1.95544192315942E-08
     -2.36289603759091E-08   7.04864299944690E-15   0.00000000000000E+00   0.00000000000000E+00   0.00000000000000E+00
     -3.88214380116510E-09  -7.76523824193506E-20   4.14943723415762E-07   4.11061579614520E-07  -1.58988100207813E-15
      0.00000000000000E+00   0.00000000000000E+00   0.00000000000000E+00   3.35464195689759E-09  -1.53732195397698E-19
     -4.57125397052906E-07  -4.53770755096162E-07  -3.17841142932637E-15   0.00000000000000E+00   0.00000000000000E+00
      0.00000000000000E+00   5.42983448908225E-10  -1.53726226746301E-19  -7.05393761780824E-08  -6.99963927293279E-08
     -3.17807767645012E-15   0.00000000000000E+00   0.00000000000000E+00   0.00000000000000E+00   1.56732014495102E-10
     -1.53724299049265E-19  -6.15851443944372E-09  -6.00178242510234E-09  -3.17799641810476E-15   0.00000000000000E+00
      0.00000000000000E+00   0.00000000000000E+00   6.07338202706968E-11  -1.89245036739591E-19   6.75615732174740E-09
      6.81689114182885E-09  -3.17808076771585E-15   0.00000000000000E+00   0.00000000000000E+00   0.00000000000000E+00
      3.60124740810585E-11  -1.53130576329058E-19   8.73789591035941E-09   8.77390838428734E-09  -3.17831266523580E-15
      1.40000000000000E-12