DF-ISE text

Info {
  version   = 1.0
  type      = xyplot
  datasets  = [
    "time"
    "PIX7 OuterVoltage" "PIX7 InnerVoltage" "PIX7 QuasiFermiPotential" "PIX7 DisplacementCurrent" "PIX7 eCurrent"
    "PIX7 hCurrent" "PIX7 TotalCurrent" "PIX7 Charge" "BACK OuterVoltage" "BACK InnerVoltage"
    "BACK QuasiFermiPotential" "BACK DisplacementCurrent" "BACK eCurrent" "BACK hCurrent" "BACK TotalCurrent"
    "BACK Charge" "PIX8 OuterVoltage" "PIX8 InnerVoltage" "PIX8 QuasiFermiPotential" "PIX8 DisplacementCurrent"
    "PIX8 eCurrent" "PIX8 hCurrent" "PIX8 TotalCurrent" "PIX8 Charge" "PIX9 OuterVoltage"
    "PIX9 InnerVoltage" "PIX9 QuasiFermiPotential" "PIX9 DisplacementCurrent" "PIX9 eCurrent" "PIX9 hCurrent"
    "PIX9 TotalCurrent" "PIX9 Charge" "PIX1 OuterVoltage" "PIX1 InnerVoltage" "PIX1 QuasiFermiPotential"
    "PIX1 DisplacementCurrent" "PIX1 eCurrent" "PIX1 hCurrent" "PIX1 TotalCurrent" "PIX1 Charge"
    "PIX2 OuterVoltage" "PIX2 InnerVoltage" "PIX2 QuasiFermiPotential" "PIX2 DisplacementCurrent" "PIX2 eCurrent"
    "PIX2 hCurrent" "PIX2 TotalCurrent" "PIX2 Charge" "PIX3 OuterVoltage" "PIX3 InnerVoltage"
    "PIX3 QuasiFermiPotential" "PIX3 DisplacementCurrent" "PIX3 eCurrent" "PIX3 hCurrent" "PIX3 TotalCurrent"
    "PIX3 Charge" "PIX4 OuterVoltage" "PIX4 InnerVoltage" "PIX4 QuasiFermiPotential" "PIX4 DisplacementCurrent"
    "PIX4 eCurrent" "PIX4 hCurrent" "PIX4 TotalCurrent" "PIX4 Charge" "PIX5 OuterVoltage"
    "PIX5 InnerVoltage" "PIX5 QuasiFermiPotential" "PIX5 DisplacementCurrent" "PIX5 eCurrent" "PIX5 hCurrent"
    "PIX5 TotalCurrent" "PIX5 Charge" "PIX6 OuterVoltage" "PIX6 InnerVoltage" "PIX6 QuasiFermiPotential"
    "PIX6 DisplacementCurrent" "PIX6 eCurrent" "PIX6 hCurrent" "PIX6 TotalCurrent" "PIX6 Charge" ]
  functions = [
    Time
    OuterVoltage InnerVoltage QuasiFermiPotential DisplacementCurrent eCurrent
    hCurrent TotalCurrent Charge OuterVoltage InnerVoltage
    QuasiFermiPotential DisplacementCurrent eCurrent hCurrent TotalCurrent
    Charge OuterVoltage InnerVoltage QuasiFermiPotential DisplacementCurrent
    eCurrent hCurrent TotalCurrent Charge OuterVoltage
    InnerVoltage QuasiFermiPotential DisplacementCurrent eCurrent hCurrent
    TotalCurrent Charge OuterVoltage InnerVoltage QuasiFermiPotential
    DisplacementCurrent eCurrent hCurrent TotalCurrent Charge
    OuterVoltage InnerVoltage QuasiFermiPotential DisplacementCurrent eCurrent
    hCurrent TotalCurrent Charge OuterVoltage InnerVoltage
    QuasiFermiPotential DisplacementCurrent eCurrent hCurrent TotalCurrent
    Charge OuterVoltage InnerVoltage QuasiFermiPotential DisplacementCurrent
    eCurrent hCurrent TotalCurrent Charge OuterVoltage
    InnerVoltage QuasiFermiPotential DisplacementCurrent eCurrent hCurrent
    TotalCurrent Charge OuterVoltage InnerVoltage QuasiFermiPotential
    DisplacementCurrent eCurrent hCurrent TotalCurrent Charge ]
}

Data {
      0.00000000000000E+00
      0.00000000000000E+00   0.00000000000000E+00   0.00000000000000E+00  -7.41639767642022E-30  -1.53131048027052E-19
     -4.31859537534063E-15  -4.31874850638866E-15  -3.17924148555976E-15   2.00000000000000E+02   2.00000000000000E+02
      0.00000000000000E+00   4.52288188252301E-25   1.72334044959222E-11   1.02909616161154E-14   1.72436954575388E-11
      1.68177494282920E-14   0.00000000000000E+00   0.00000000000000E+00   0.00000000000000E+00  -1.07125744214959E-29
     -1.53722664892220E-19  -4.81527078308231E-15  -4.81542450574721E-15  -3.20780957579879E-15   0.00000000000000E+00
      0.00000000000000E+00   0.00000000000000E+00   6.75056997391493E-27  -1.71999968914495E-11  -1.05034289609497E-14
     -1.72105003204104E-11   7.07088673081415E-15   0.00000000000000E+00   0.00000000000000E+00   0.00000000000000E+00
      2.88415465194120E-30  -7.62087392901926E-20  -2.46869454736120E-15  -2.46877075610049E-15  -1.61914747595537E-15
      0.00000000000000E+00   0.00000000000000E+00   0.00000000000000E+00  -1.64808837253783E-30  -1.53788914581493E-19
     -4.32533135810606E-15  -4.32548514702064E-15  -3.17225982985196E-15   0.00000000000000E+00   0.00000000000000E+00
      0.00000000000000E+00  -1.07125744214959E-29  -1.53740597260605E-19  -4.31529881004926E-15  -4.31545255064653E-15
     -3.17675365052508E-15   0.00000000000000E+00   0.00000000000000E+00   0.00000000000000E+00  -8.24044186268913E-30
     -1.53731158912797E-19  -4.31641513268356E-15  -4.31656886384248E-15  -3.17760403665464E-15   0.00000000000000E+00
      0.00000000000000E+00   0.00000000000000E+00  -1.31847069803026E-29  -1.89248307215442E-19  -4.31692432986247E-15
     -4.31711357816970E-15  -3.17799024863341E-15   0.00000000000000E+00   0.00000000000000E+00   0.00000000000000E+00
     -1.23606627940337E-29  -1.53132060281153E-19  -4.31742008837359E-15  -4.31757322043388E-15  -3.17836422924232E-15
      1.00000000000000E-13
      0.00000000000000E+00   0.00000000000000E+00   0.00000000000000E+00   3.80570371822417E-07  -1.53108214086811E-19
      2.47976141700738E-06   2.86033178882964E-06  -3.17895545238064E-15   2.00000000000000E+02   2.00000000000000E+02
      0.00000000000000E+00  -1.97698188653928E-04   2.00784200226444E-04   1.58177822246824E-13   3.08601173069420E-06
      1.68180580277406E-14   0.00000000000000E+00   0.00000000000000E+00   0.00000000000000E+00   2.15211118710917E-07
     -1.53686131219756E-19   4.21913346143060E-06   4.43434458014136E-06  -3.20736614103366E-15   0.00000000000000E+00
      0.00000000000000E+00   0.00000000000000E+00  -2.11310376578239E-04  -1.62031670343249E-11  -4.33824933628895E-06
     -2.15648642117695E-04   7.04932187156414E-15   0.00000000000000E+00   0.00000000000000E+00   0.00000000000000E+00
     -3.12772272570336E-05  -7.58465041248560E-20   2.16811201339801E-04   1.85533974082767E-04  -1.60059408664043E-15
      0.00000000000000E+00   0.00000000000000E+00   0.00000000000000E+00   1.38631609541998E-05  -1.53699959167525E-19
      2.63805086920243E-06   1.65012118234021E-05  -3.17060970586834E-15   0.00000000000000E+00   0.00000000000000E+00
      0.00000000000000E+00   3.00105768643071E-06  -1.53722762509590E-19  -1.23463915686255E-07   2.87759377074431E-06
     -3.17646589013826E-15   0.00000000000000E+00   0.00000000000000E+00   0.00000000000000E+00   1.30883461902322E-06
     -1.53718850236408E-19   3.27876859986634E-07   1.63671147900970E-06  -3.17744036506204E-15   0.00000000000000E+00
      0.00000000000000E+00   0.00000000000000E+00   7.51917361524581E-07  -1.89233709781260E-19   1.12648067908716E-06
      1.87839804061155E-06  -3.17780240862978E-15   0.00000000000000E+00   0.00000000000000E+00   0.00000000000000E+00
      5.03027543313425E-07  -1.53115035656089E-19   1.68076843031796E-06   2.18379597363124E-06  -3.17814584955162E-15
      2.00000000000000E-13
      0.00000000000000E+00   0.00000000000000E+00   0.00000000000000E+00  -7.77135549559689E-08  -1.53135473246063E-19
     -6.98987218507377E-07  -7.76700773463499E-07  -3.17903312234766E-15   2.00000000000000E+02   2.00000000000000E+02
      0.00000000000000E+00  -1.91587682872975E-05   1.77344803604408E-05   1.48491671515398E-13  -1.42428777836498E-06
      1.68179155972384E-14   0.00000000000000E+00   0.00000000000000E+00   0.00000000000000E+00  -1.01089377148237E-07
     -1.53720450333186E-19   1.84220447213028E-07   8.31310700646371E-08  -3.20735782732424E-15   0.00000000000000E+00
      0.00000000000000E+00   0.00000000000000E+00  -4.64329117116615E-08  -1.62404622709687E-11  -2.74425588975205E-06
     -2.79070504192599E-06   7.04904280155784E-15   0.00000000000000E+00   0.00000000000000E+00   0.00000000000000E+00
     -4.44354742053817E-06  -7.72683005691009E-20   4.80844549093641E-05   4.36409074888258E-05  -1.59623000936546E-15
      0.00000000000000E+00   0.00000000000000E+00   0.00000000000000E+00  -7.08401059362308E-07  -1.53934274657144E-19
     -2.53024781739106E-05  -2.60108792332730E-05  -3.17321078388780E-15   0.00000000000000E+00   0.00000000000000E+00
      0.00000000000000E+00  -1.58238502543158E-07  -1.53778777654656E-19  -6.64555549226850E-06  -6.80379399481182E-06
     -3.17714626721185E-15   0.00000000000000E+00   0.00000000000000E+00   0.00000000000000E+00  -7.59298956730000E-08
     -1.53746960654332E-19  -2.89457610144027E-06  -2.97050599711342E-06  -3.17773741467527E-15   0.00000000000000E+00
      0.00000000000000E+00   0.00000000000000E+00  -6.64637634176734E-08  -1.89258497025277E-19  -1.72025646852307E-06
     -1.78672023194093E-06  -3.17798108015476E-15   0.00000000000000E+00   0.00000000000000E+00   0.00000000000000E+00
     -6.66749270996473E-08  -1.53139055431898E-19  -1.09377058088035E-06  -1.16044550798015E-06  -3.17826189382919E-15
      3.00000000000000E-13
      0.00000000000000E+00   0.00000000000000E+00   0.00000000000000E+00   7.27596831157659E-09  -1.53133531124855E-19
     -4.38209106201906E-07  -4.30933137890482E-07  -3.17907621546940E-15   2.00000000000000E+02   2.00000000000000E+02
      0.00000000000000E+00  -6.12620400866046E-06   5.73040117156314E-06   1.44217407436905E-13  -3.95802692879908E-07
      1.68178760152448E-14   0.00000000000000E+00   0.00000000000000E+00   0.00000000000000E+00  -8.44641084953351E-10
     -1.53721225626106E-19   1.18481569793482E-07   1.17636928708375E-07  -3.20734606284747E-15   0.00000000000000E+00
      0.00000000000000E+00   0.00000000000000E+00  -2.67266935052540E-09  -1.62525016349256E-11  -1.63577313142980E-06
     -1.63846205328196E-06   7.04887895261496E-15   0.00000000000000E+00   0.00000000000000E+00   0.00000000000000E+00
     -5.56386562827967E-07  -7.74513310446735E-20   2.59039467697970E-05   2.53475602069689E-05  -1.59369527004368E-15
      0.00000000000000E+00   0.00000000000000E+00   0.00000000000000E+00   2.28933242841052E-07  -1.53863821102428E-19
     -1.67305242870848E-05  -1.65015910442439E-05  -3.17486092836057E-15   0.00000000000000E+00   0.00000000000000E+00
      0.00000000000000E+00   8.08991893606368E-08  -1.53754390345785E-19  -3.62590419271538E-06  -3.54500500335490E-06
     -3.17750076456527E-15   0.00000000000000E+00   0.00000000000000E+00   0.00000000000000E+00   3.75136896113671E-08
     -1.53735950481914E-19  -1.50865372927985E-06  -1.47114003966863E-06  -3.17788452735511E-15   0.00000000000000E+00
      0.00000000000000E+00   0.00000000000000E+00   2.17986692644314E-08  -1.89252054043877E-19  -9.02223000764263E-07
     -8.80424331500021E-07  -3.17806912189884E-15   0.00000000000000E+00   0.00000000000000E+00   0.00000000000000E+00
      1.30180324073453E-08  -1.53135359011410E-19  -6.14856865224260E-07  -6.01838832817068E-07  -3.17832207731933E-15
      4.00000000000000E-13
      0.00000000000000E+00   0.00000000000000E+00   0.00000000000000E+00   4.51530786144977E-09  -1.53132306510817E-19
     -2.74919269528034E-07  -2.70403961666737E-07  -3.17910325561525E-15   2.00000000000000E+02   2.00000000000000E+02
      0.00000000000000E+00  -3.34295420656710E-06   3.22533956645188E-06   1.41616128919267E-13  -1.17614498499092E-07
      1.68178642520704E-14   0.00000000000000E+00   0.00000000000000E+00   0.00000000000000E+00  -4.61858765484981E-10
     -1.53721624498342E-19   8.57468604464875E-08   8.52850016808488E-08  -3.20733753344725E-15   0.00000000000000E+00
      0.00000000000000E+00   0.00000000000000E+00  -3.08254068534105E-09  -1.62636802160053E-11  -9.91890590515341E-07
     -9.94989394880898E-07   7.04877944880735E-15   0.00000000000000E+00   0.00000000000000E+00   0.00000000000000E+00
     -2.55067101374678E-07  -7.75343279658988E-20   1.57284456793659E-05   1.54733785779912E-05  -1.59214795094952E-15
      0.00000000000000E+00   0.00000000000000E+00   0.00000000000000E+00   1.59521530221175E-07  -1.53814414926511E-19
     -1.06710008960695E-05  -1.05114793658485E-05  -3.17591205857651E-15   0.00000000000000E+00   0.00000000000000E+00
      0.00000000000000E+00   4.19178483282508E-08  -1.53741772356859E-19  -2.04646715337067E-06  -2.00454930504257E-06
     -3.17770121583173E-15   0.00000000000000E+00   0.00000000000000E+00   0.00000000000000E+00   1.80577724327245E-08
     -1.53730695072286E-19  -8.36815571973398E-07  -8.18757799540827E-07  -3.17796640159728E-15   0.00000000000000E+00
      0.00000000000000E+00   0.00000000000000E+00   1.06019078068314E-08  -1.89248949285175E-19  -5.03028129327458E-07
     -4.92426221520815E-07  -3.17811836370968E-15   0.00000000000000E+00   0.00000000000000E+00   0.00000000000000E+00
      7.06167306516484E-09  -1.53133373480831E-19  -3.55504705740774E-07  -3.48443032675762E-07  -3.17835692115060E-15
      5.00000000000000E-13
      0.00000000000000E+00   0.00000000000000E+00   0.00000000000000E+00   2.60760059588826E-09  -1.53131603074535E-19
     -1.81163055505757E-07  -1.78555454910022E-07  -3.17912111086972E-15   2.00000000000000E+02   2.00000000000000E+02
      0.00000000000000E+00  -2.23741962391823E-06   2.20254594206816E-06   1.39758124104037E-13  -3.48735420919439E-08
      1.68178607629919E-14   0.00000000000000E+00   0.00000000000000E+00   0.00000000000000E+00  -6.08958244467501E-10
     -1.53721954461053E-19   5.40572651402405E-08   5.34483068956193E-08  -3.20733218764020E-15   0.00000000000000E+00
      0.00000000000000E+00   0.00000000000000E+00  -5.32963768563424E-09  -1.62755242750474E-11  -6.11893696816914E-07
     -6.17239610026823E-07   7.04871771865082E-15   0.00000000000000E+00   0.00000000000000E+00   0.00000000000000E+00
     -1.48068519761532E-07  -7.75817043946925E-20   9.85266796692447E-06   9.70459944716286E-06  -1.59117751116272E-15
      0.00000000000000E+00   0.00000000000000E+00   0.00000000000000E+00   1.00590974224035E-07  -1.53783290509321E-19
     -6.83121731018684E-06  -6.73062633596296E-06  -3.17658510148314E-15   0.00000000000000E+00   0.00000000000000E+00
      0.00000000000000E+00   2.19121408211006E-08  -1.53735234139717E-19  -1.21994928513312E-06  -1.19803714431217E-06
     -3.17782101555182E-15   0.00000000000000E+00   0.00000000000000E+00   0.00000000000000E+00   9.10461233624147E-09
     -1.53728088806839E-19  -4.98979626937930E-07  -4.89875014601843E-07  -3.17801538742360E-15   0.00000000000000E+00
      0.00000000000000E+00   0.00000000000000E+00   5.39302987296071E-09  -1.89247398231127E-19  -3.00895045009481E-07
     -2.95502015136710E-07  -3.17814791302095E-15   0.00000000000000E+00   0.00000000000000E+00   0.00000000000000E+00
      3.80245943331870E-09  -1.53132323984094E-19  -2.17141096326487E-07  -2.13338636893321E-07  -3.17837825449057E-15
      6.00000000000000E-13
      0.00000000000000E+00   0.00000000000000E+00   0.00000000000000E+00   1.63456203140075E-09  -1.53131155817296E-19
     -1.22380423032205E-07  -1.20745861000957E-07  -3.17913318513653E-15   2.00000000000000E+02   2.00000000000000E+02
      0.00000000000000E+00  -1.65770959224194E-06   1.64809979134746E-06   1.38308223631400E-13  -9.60966258626532E-09
      1.68178598003013E-14   0.00000000000000E+00   0.00000000000000E+00   0.00000000000000E+00  -4.49532991013163E-10
     -1.53722170640417E-19   3.18898475236925E-08   3.14403145325256E-08  -3.20732904258080E-15   0.00000000000000E+00
      0.00000000000000E+00   0.00000000000000E+00  -6.44897297033162E-09  -1.62874011912700E-11  -3.83630512393919E-07
     -3.90095772765442E-07   7.04867870209110E-15   0.00000000000000E+00   0.00000000000000E+00   0.00000000000000E+00
     -8.96896811143749E-08  -7.76098642099628E-20   6.30411134781823E-06   6.21442166670378E-06  -1.59055609014596E-15
      0.00000000000000E+00   0.00000000000000E+00   0.00000000000000E+00   6.32305244726388E-08  -1.53763771896167E-19
     -4.41223454433379E-06  -4.34900401986130E-06  -3.17701998085037E-15   0.00000000000000E+00   0.00000000000000E+00
      0.00000000000000E+00   1.22078986513107E-08  -1.53731618889907E-19  -7.59900293938113E-07  -7.47692395286956E-07
     -3.17789578058180E-15   0.00000000000000E+00   0.00000000000000E+00   0.00000000000000E+00   5.02918209907270E-09
     -1.53726664884975E-19  -3.13034601945183E-07  -3.08005419846265E-07  -3.17804618620031E-15   0.00000000000000E+00
      0.00000000000000E+00   0.00000000000000E+00   3.00938415467816E-09  -1.89246540773581E-19  -1.88512926286001E-07
     -1.85503542131512E-07  -3.17816646243314E-15   0.00000000000000E+00   0.00000000000000E+00   0.00000000000000E+00
      2.20355960628199E-09  -1.53131717974058E-19  -1.37408867426726E-07  -1.35205307820597E-07  -3.17839177446347E-15
      7.00000000000000E-13
      0.00000000000000E+00   0.00000000000000E+00   0.00000000000000E+00   1.06865308646606E-09  -1.53130856450062E-19
     -8.38336478908064E-08  -8.27649948044935E-08  -3.17914146129699E-15   2.00000000000000E+02   2.00000000000000E+02
      0.00000000000000E+00  -1.30370340903699E-06   1.30172452033659E-06   1.37113620130467E-13  -1.97875158677603E-09
      1.68178596007016E-14   0.00000000000000E+00   0.00000000000000E+00   0.00000000000000E+00  -2.83133471382024E-10
     -1.53722298436432E-19   1.80407545240179E-08   1.77576210524821E-08  -3.20732726575469E-15   0.00000000000000E+00
      0.00000000000000E+00   0.00000000000000E+00  -6.69268669879414E-09  -1.62988176020354E-11  -2.44570774464492E-07
     -2.51279759980888E-07   7.04865356669882E-15   0.00000000000000E+00   0.00000000000000E+00   0.00000000000000E+00
     -5.54852747178368E-08  -7.76268751962069E-20   4.11251698338636E-06   4.05703170866845E-06  -1.59015040886939E-15
      0.00000000000000E+00   0.00000000000000E+00   0.00000000000000E+00   3.98529404032732E-08  -1.53751508787660E-19
     -2.88600439227382E-06  -2.84615145187070E-06  -3.17730457409996E-15   0.00000000000000E+00   0.00000000000000E+00
      0.00000000000000E+00   7.15297288355870E-09  -1.53729512199382E-19  -4.90719384159857E-07  -4.83566411276452E-07
     -3.17794413286982E-15   0.00000000000000E+00   0.00000000000000E+00   0.00000000000000E+00   2.96299063388447E-09
     -1.53725829312324E-19  -2.03794705376735E-07  -2.00831714743004E-07  -3.17806626754599E-15   0.00000000000000E+00
      0.00000000000000E+00   0.00000000000000E+00   1.78287637379303E-09  -1.89246033840769E-19  -1.22095090297403E-07
     -1.20312213923799E-07  -3.17817849267784E-15   0.00000000000000E+00   0.00000000000000E+00   0.00000000000000E+00
      1.33542226827579E-09  -1.53131349236026E-19  -8.92394536965642E-08  -8.79040314284415E-08  -3.17840056428577E-15
      8.00000000000000E-13
      0.00000000000000E+00   0.00000000000000E+00   0.00000000000000E+00   7.12439891345054E-10  -1.53130652501679E-19
     -5.80415531023053E-08  -5.73291132111134E-08  -3.17914719385540E-15   2.00000000000000E+02   2.00000000000000E+02
      0.00000000000000E+00  -1.06663342153229E-06   1.06684160580030E-06   1.36092875589038E-13   2.08320360885218E-10
      1.68178596198093E-14   0.00000000000000E+00   0.00000000000000E+00   0.00000000000000E+00  -1.66640792801313E-10
     -1.53722368516136E-19   9.80607001467417E-09   9.63942922171913E-09  -3.20732630072158E-15   0.00000000000000E+00
      0.00000000000000E+00   0.00000000000000E+00  -6.46028764404519E-09  -1.63095499763724E-11  -1.58814933277300E-07
     -1.65291530471322E-07   7.04863702992382E-15   0.00000000000000E+00   0.00000000000000E+00   0.00000000000000E+00
     -3.48661930001987E-08  -7.76372256662922E-20   2.73674934874315E-06   2.70188315574287E-06  -1.58988024303697E-15
      0.00000000000000E+00   0.00000000000000E+00   0.00000000000000E+00   2.52569373638037E-08  -1.53743767936097E-19
     -1.91829570162224E-06  -1.89303876425859E-06  -3.17749385550606E-15   0.00000000000000E+00   0.00000000000000E+00
      0.00000000000000E+00   4.35799633240293E-09  -1.53728232912390E-19  -3.26924417884128E-07  -3.22566421551878E-07
     -3.17797638506054E-15   0.00000000000000E+00   0.00000000000000E+00   0.00000000000000E+00   1.82347268906550E-09
     -1.53725314298581E-19  -1.36687927917731E-07  -1.34864455228819E-07  -3.17807975212401E-15   0.00000000000000E+00
      0.00000000000000E+00   0.00000000000000E+00   1.09729242924897E-09  -1.89245720346881E-19  -8.12816995076329E-08
     -8.01844070785731E-08  -3.17818651011808E-15   0.00000000000000E+00   0.00000000000000E+00   0.00000000000000E+00
      8.31806470205364E-10  -1.53131116282064E-19  -5.92880201078437E-08  -5.84562136377915E-08  -3.17840640931054E-15
      9.00000000000000E-13
      0.00000000000000E+00   0.00000000000000E+00   0.00000000000000E+00   4.79635801604102E-10  -1.53130511594456E-19
     -4.06172109078060E-08  -4.01375751063550E-08  -3.17915120725006E-15   2.00000000000000E+02   2.00000000000000E+02
      0.00000000000000E+00  -8.98093992961801E-07   8.98852684498286E-07   1.35197677059781E-13   7.58826734161680E-10
      1.68178596939677E-14   0.00000000000000E+00   0.00000000000000E+00   0.00000000000000E+00  -9.43424687221045E-11
     -1.53722404846685E-19   5.03711570901455E-09   4.94277324013872E-09  -3.20732580533427E-15   0.00000000000000E+00
      0.00000000000000E+00   0.00000000000000E+00  -6.01127958093435E-09  -1.63195414671575E-11  -1.05305980816689E-07
     -1.11333579939091E-07   7.04862588888662E-15   0.00000000000000E+00   0.00000000000000E+00   0.00000000000000E+00
     -2.22099479990910E-08  -7.76435295730912E-20   1.86096820931105E-06   1.83875826131188E-06  -1.58969639018330E-15
      0.00000000000000E+00   0.00000000000000E+00   0.00000000000000E+00   1.61316594039227E-08  -1.53738848026284E-19
     -1.30011589353896E-06  -1.28398423413519E-06  -3.17762223106876E-15   0.00000000000000E+00   0.00000000000000E+00
      0.00000000000000E+00   2.73756345473016E-09  -1.53727431067128E-19  -2.24127238484440E-07  -2.21389675029863E-07
     -3.17799851950739E-15   0.00000000000000E+00   0.00000000000000E+00   0.00000000000000E+00   1.15652219994886E-09
     -1.53724985907364E-19  -9.41672801846571E-08  -9.30107579848620E-08  -3.17808905130276E-15   0.00000000000000E+00
      0.00000000000000E+00   0.00000000000000E+00   6.93049940386972E-10  -1.89245521411958E-19  -5.55304588877340E-08
     -5.48374089475362E-08  -3.17819199284174E-15   0.00000000000000E+00   0.00000000000000E+00   0.00000000000000E+00
      5.28027534552838E-10  -1.53130966512006E-19  -4.02946576298979E-08  -3.97666300954982E-08  -3.17841038536590E-15
      1.00000000000000E-12
      0.00000000000000E+00   0.00000000000000E+00   0.00000000000000E+00   3.24941186677910E-10  -1.53130413624765E-19
     -2.87780585036132E-08  -2.84531173170884E-08  -3.17915405219175E-15   2.00000000000000E+02   2.00000000000000E+02
      0.00000000000000E+00  -7.73124201198628E-07   7.73980711923033E-07   1.34397131393984E-13   8.56645121537290E-10
      1.68178597779077E-14   0.00000000000000E+00   0.00000000000000E+00   0.00000000000000E+00  -5.17752686737286E-11
     -1.53722420751198E-19   2.32285236863261E-09   2.27107709980516E-09  -3.20732557710093E-15   0.00000000000000E+00
      0.00000000000000E+00   0.00000000000000E+00  -5.49021004209297E-09  -1.63288183864624E-11  -7.15057647519554E-08
     -7.70123036124349E-08   7.04861818001640E-15   0.00000000000000E+00   0.00000000000000E+00   0.00000000000000E+00
     -1.43358412001541E-08  -7.76473457629673E-20   1.29595505589798E-06   1.28161921469775E-06  -1.58956825165844E-15
      0.00000000000000E+00   0.00000000000000E+00   0.00000000000000E+00   1.04048867447228E-08  -1.53735694249209E-19
     -9.01394523189609E-07  -8.90989636445040E-07  -3.17771130690157E-15   0.00000000000000E+00   0.00000000000000E+00
      0.00000000000000E+00   1.76269181448064E-09  -1.53726913943339E-19  -1.57976140351097E-07  -1.56213448536770E-07
     -3.17801413628148E-15   0.00000000000000E+00   0.00000000000000E+00   0.00000000000000E+00   7.50061374954371E-10
     -1.53724770601193E-19  -6.66012381964542E-08  -6.58511768216535E-08  -3.17809563450191E-15   0.00000000000000E+00
      0.00000000000000E+00   0.00000000000000E+00   4.46466110188541E-10  -1.89245391735823E-19  -3.89541045967200E-08
     -3.85076384867207E-08  -3.17819584257619E-15   0.00000000000000E+00   0.00000000000000E+00   0.00000000000000E+00
      3.40357484032508E-10  -1.53130867832687E-19  -2.80599732229043E-08  -2.77196157390249E-08  -3.17841315671182E-15
      1.10000000000000E-12
      0.00000000000000E+00   0.00000000000000E+00   0.00000000000000E+00   2.21362770305271E-10  -1.53130345040973E-19
     -2.06938839668983E-08  -2.04725211967462E-08  -3.17915609906852E-15   2.00000000000000E+02   2.00000000000000E+02
      0.00000000000000E+00  -6.77415209269716E-07   6.78271580470932E-07   1.33670371955953E-13   8.56504871587372E-10
      1.68178598618339E-14   0.00000000000000E+00   0.00000000000000E+00   0.00000000000000E+00  -2.74811143324587E-11
     -1.53722426809913E-19   8.01572094022522E-10   7.74090979536341E-10  -3.20732549855336E-15   0.00000000000000E+00
      0.00000000000000E+00   0.00000000000000E+00  -4.97124438088557E-09  -1.63374422491178E-11  -4.98648019450793E-08
     -5.48523837682140E-08   7.04861268724149E-15   0.00000000000000E+00   0.00000000000000E+00   0.00000000000000E+00
     -9.38152785284206E-09  -7.76496196989454E-20   9.26351172070496E-07   9.16969644217576E-07  -1.58947657847093E-15
      0.00000000000000E+00   0.00000000000000E+00   0.00000000000000E+00   6.79078292193585E-09  -1.53733651597886E-19
     -6.41197451713234E-07  -6.34406668791452E-07  -3.17777472424716E-15   0.00000000000000E+00   0.00000000000000E+00
      0.00000000000000E+00   1.15919037155521E-09  -1.53726574000452E-19  -1.14487711054220E-07  -1.13328520682818E-07
     -3.17802546452549E-15   0.00000000000000E+00   0.00000000000000E+00   0.00000000000000E+00   4.95519584375061E-10
     -1.53724626946622E-19  -4.83905653312569E-08  -4.78950457470356E-08  -3.17810042207184E-15   0.00000000000000E+00
      0.00000000000000E+00   0.00000000000000E+00   2.92608163275147E-10  -1.89245305477543E-19  -2.80966099756396E-08
     -2.78040018125537E-08  -3.17819862193790E-15   0.00000000000000E+00   0.00000000000000E+00   0.00000000000000E+00
      2.22567910669352E-10  -1.53130801633783E-19  -2.00636659707083E-08  -1.98410980601921E-08  -3.17841514020005E-15
      1.20000000000000E-12
      0.00000000000000E+00   0.00000000000000E+00   0.00000000000000E+00   1.51731128782182E-10  -1.53130296626932E-19
     -1.51427958459007E-08  -1.49910647172717E-08  -3.17915759779564E-15   2.00000000000000E+02   2.00000000000000E+02
      0.00000000000000E+00  -6.02137141075499E-07   6.02991060777792E-07   1.33002705942622E-13   8.54052704998715E-10
      1.68178599455147E-14   0.00000000000000E+00   0.00000000000000E+00   0.00000000000000E+00  -1.38712369783955E-11
     -1.53722426927677E-19  -3.53948715352726E-11  -4.92661086673906E-11  -3.20732550233062E-15   0.00000000000000E+00
      0.00000000000000E+00   0.00000000000000E+00  -4.48882924108493E-09  -1.63454850520530E-11  -3.57962233273695E-08
     -4.03013980535065E-08   7.04860864971131E-15   0.00000000000000E+00   0.00000000000000E+00   0.00000000000000E+00
     -6.23198197080803E-09  -7.76509304097360E-20   6.80918062873901E-07   6.74686080903015E-07  -1.58940913398945E-15
      0.00000000000000E+00   0.00000000000000E+00   0.00000000000000E+00   4.49388965388601E-09  -1.53732311797325E-19
     -4.69039533664486E-07  -4.64545644010754E-07  -3.17782115535390E-15   0.00000000000000E+00   0.00000000000000E+00
      0.00000000000000E+00   7.77183950083060E-10  -1.53726346052790E-19  -8.53345650627431E-08  -8.45573811128137E-08
     -3.17803391562712E-15   0.00000000000000E+00   0.00000000000000E+00   0.00000000000000E+00   3.33045857327057E-10
     -1.53724528238281E-19  -3.61491478804472E-08  -3.58161020232739E-08  -3.17810400173504E-15   0.00000000000000E+00
      0.00000000000000E+00   0.00000000000000E+00   1.95046038230924E-10  -1.89245246887617E-19  -2.08633179215545E-08
     -2.06682718835128E-08  -3.17820068771966E-15   0.00000000000000E+00   0.00000000000000E+00   0.00000000000000E+00
      1.47727838848150E-10  -1.53130756347661E-19  -1.47587334321690E-08  -1.46110055934740E-08  -3.17841660067452E-15
      1.30000000000000E-12
      0.00000000000000E+00   0.00000000000000E+00   0.00000000000000E+00   1.04796410771035E-10  -1.53130262087760E-19
     -1.13045459249013E-08  -1.11997495142834E-08  -3.17915871738817E-15   2.00000000000000E+02   2.00000000000000E+02
      0.00000000000000E+00  -5.41557538421525E-07   5.42424969700043E-07   1.32383436358704E-13   8.67563661955079E-10
      1.68178600305467E-14   0.00000000000000E+00   0.00000000000000E+00   0.00000000000000E+00  -6.36459632006255E-12
     -1.53722424037845E-19  -4.82951933374127E-10  -4.89316529847912E-10  -3.20732555010343E-15   0.00000000000000E+00
      0.00000000000000E+00   0.00000000000000E+00  -4.05596137023184E-09  -1.63530174641764E-11  -2.64908373788527E-08
     -3.05631517665487E-08   7.04860558618096E-15   0.00000000000000E+00   0.00000000000000E+00   0.00000000000000E+00
     -4.20917694023176E-09  -7.76516361415335E-20   5.15207188904191E-07   5.10998011963882E-07  -1.58935805864214E-15
      0.00000000000000E+00   0.00000000000000E+00   0.00000000000000E+00   3.02198232696702E-09  -1.53731421337481E-19
     -3.53295750274425E-07  -3.50273767947612E-07  -3.17785615917434E-15   0.00000000000000E+00   0.00000000000000E+00
      0.00000000000000E+00   5.31024598325337E-10  -1.53726189359388E-19  -6.54162803694320E-08  -6.48852557712603E-08
     -3.17804039949412E-15   0.00000000000000E+00   0.00000000000000E+00   0.00000000000000E+00   2.27801819317803E-10
     -1.53724460393457E-19  -2.77746082169336E-08  -2.75468063977695E-08  -3.17810675445898E-15   0.00000000000000E+00
      0.00000000000000E+00   0.00000000000000E+00   1.32350083067051E-10  -1.89245206194151E-19  -1.59579249067474E-08
     -1.58255748238696E-08  -3.17820226922627E-15   0.00000000000000E+00   0.00000000000000E+00   0.00000000000000E+00
      9.96550245543209E-11  -1.53130724702686E-19  -1.11816080720319E-08  -1.10819530476308E-08  -3.17841770824020E-15
      1.40000000000000E-12