DF-ISE text

Info {
  version   = 1.0
  type      = xyplot
  datasets  = [
    "time"
    "PIX7 OuterVoltage" "PIX7 InnerVoltage" "PIX7 QuasiFermiPotential" "PIX7 DisplacementCurrent" "PIX7 eCurrent"
    "PIX7 hCurrent" "PIX7 TotalCurrent" "PIX7 Charge" "BACK OuterVoltage" "BACK InnerVoltage"
    "BACK QuasiFermiPotential" "BACK DisplacementCurrent" "BACK eCurrent" "BACK hCurrent" "BACK TotalCurrent"
    "BACK Charge" "PIX8 OuterVoltage" "PIX8 InnerVoltage" "PIX8 QuasiFermiPotential" "PIX8 DisplacementCurrent"
    "PIX8 eCurrent" "PIX8 hCurrent" "PIX8 TotalCurrent" "PIX8 Charge" "PIX9 OuterVoltage"
    "PIX9 InnerVoltage" "PIX9 QuasiFermiPotential" "PIX9 DisplacementCurrent" "PIX9 eCurrent" "PIX9 hCurrent"
    "PIX9 TotalCurrent" "PIX9 Charge" "PIX1 OuterVoltage" "PIX1 InnerVoltage" "PIX1 QuasiFermiPotential"
    "PIX1 DisplacementCurrent" "PIX1 eCurrent" "PIX1 hCurrent" "PIX1 TotalCurrent" "PIX1 Charge"
    "PIX2 OuterVoltage" "PIX2 InnerVoltage" "PIX2 QuasiFermiPotential" "PIX2 DisplacementCurrent" "PIX2 eCurrent"
    "PIX2 hCurrent" "PIX2 TotalCurrent" "PIX2 Charge" "PIX3 OuterVoltage" "PIX3 InnerVoltage"
    "PIX3 QuasiFermiPotential" "PIX3 DisplacementCurrent" "PIX3 eCurrent" "PIX3 hCurrent" "PIX3 TotalCurrent"
    "PIX3 Charge" "PIX4 OuterVoltage" "PIX4 InnerVoltage" "PIX4 QuasiFermiPotential" "PIX4 DisplacementCurrent"
    "PIX4 eCurrent" "PIX4 hCurrent" "PIX4 TotalCurrent" "PIX4 Charge" "PIX5 OuterVoltage"
    "PIX5 InnerVoltage" "PIX5 QuasiFermiPotential" "PIX5 DisplacementCurrent" "PIX5 eCurrent" "PIX5 hCurrent"
    "PIX5 TotalCurrent" "PIX5 Charge" "PIX6 OuterVoltage" "PIX6 InnerVoltage" "PIX6 QuasiFermiPotential"
    "PIX6 DisplacementCurrent" "PIX6 eCurrent" "PIX6 hCurrent" "PIX6 TotalCurrent" "PIX6 Charge" ]
  functions = [
    Time
    OuterVoltage InnerVoltage QuasiFermiPotential DisplacementCurrent eCurrent
    hCurrent TotalCurrent Charge OuterVoltage InnerVoltage
    QuasiFermiPotential DisplacementCurrent eCurrent hCurrent TotalCurrent
    Charge OuterVoltage InnerVoltage QuasiFermiPotential DisplacementCurrent
    eCurrent hCurrent TotalCurrent Charge OuterVoltage
    InnerVoltage QuasiFermiPotential DisplacementCurrent eCurrent hCurrent
    TotalCurrent Charge OuterVoltage InnerVoltage QuasiFermiPotential
    DisplacementCurrent eCurrent hCurrent TotalCurrent Charge
    OuterVoltage InnerVoltage QuasiFermiPotential DisplacementCurrent eCurrent
    hCurrent TotalCurrent Charge OuterVoltage InnerVoltage
    QuasiFermiPotential DisplacementCurrent eCurrent hCurrent TotalCurrent
    Charge OuterVoltage InnerVoltage QuasiFermiPotential DisplacementCurrent
    eCurrent hCurrent TotalCurrent Charge OuterVoltage
    InnerVoltage QuasiFermiPotential DisplacementCurrent eCurrent hCurrent
    TotalCurrent Charge OuterVoltage InnerVoltage QuasiFermiPotential
    DisplacementCurrent eCurrent hCurrent TotalCurrent Charge ]
}

Data {
      0.00000000000000E+00
      0.00000000000000E+00   0.00000000000000E+00   0.00000000000000E+00  -7.41639767642022E-30  -1.53131048027052E-19
     -4.31859537534063E-15  -4.31874850638866E-15  -3.17924148555976E-15   2.00000000000000E+02   2.00000000000000E+02
      0.00000000000000E+00   4.69164613187088E-25   1.61230628473415E-11   1.12063261019678E-12   1.72436954575388E-11
      1.68177494282920E-14   0.00000000000000E+00   0.00000000000000E+00   0.00000000000000E+00  -1.07125744214959E-29
     -1.53722664892220E-19  -4.81527078308231E-15  -4.81542450574721E-15  -3.20780957579879E-15   0.00000000000000E+00
      0.00000000000000E+00   0.00000000000000E+00   6.75056997391493E-27  -1.71999968914495E-11  -1.05034289609497E-14
     -1.72105003204104E-11   7.07088673081416E-15   0.00000000000000E+00   0.00000000000000E+00   0.00000000000000E+00
      2.88415465194120E-30  -7.62087392901926E-20  -2.46869454736120E-15  -2.46877075610049E-15  -1.61914747595537E-15
      0.00000000000000E+00   0.00000000000000E+00   0.00000000000000E+00  -1.64808837253783E-30  -1.53788914581493E-19
     -4.32533135810606E-15  -4.32548514702064E-15  -3.17225982985196E-15   0.00000000000000E+00   0.00000000000000E+00
      0.00000000000000E+00  -1.07125744214959E-29  -1.53740597260605E-19  -4.31529881004926E-15  -4.31545255064653E-15
     -3.17675365052508E-15   0.00000000000000E+00   0.00000000000000E+00   0.00000000000000E+00  -8.24044186268913E-30
     -1.53731158912797E-19  -4.31641513268356E-15  -4.31656886384248E-15  -3.17760403665464E-15   0.00000000000000E+00
      0.00000000000000E+00   0.00000000000000E+00  -1.31847069803026E-29  -1.89248307215442E-19  -4.31692432986247E-15
     -4.31711357816970E-15  -3.17799024863341E-15   0.00000000000000E+00   0.00000000000000E+00   0.00000000000000E+00
     -1.23606627940337E-29  -1.53132060281153E-19  -4.31742008837359E-15  -4.31757322043388E-15  -3.17836422924232E-15
      1.00000000000000E-13
      0.00000000000000E+00   0.00000000000000E+00   0.00000000000000E+00   3.79401343217495E-07  -1.53108588671279E-19
      2.43438916141466E-06   2.81379050463200E-06  -3.17896010650748E-15   2.00000000000000E+02   2.00000000000000E+02
      0.00000000000000E+00  -1.97671743831118E-04   2.01678071655271E-04   1.58185910734150E-13   4.00632798233907E-06
      1.68181500593658E-14   0.00000000000000E+00   0.00000000000000E+00   0.00000000000000E+00   2.14310363352885E-07
     -1.53686418163175E-19   4.18445629276293E-06   4.39876665611567E-06  -3.20736969882511E-15   0.00000000000000E+00
      0.00000000000000E+00   0.00000000000000E+00  -2.11311416215699E-04  -1.62041041227964E-11  -4.35316786494390E-06
     -2.15664600284747E-04   7.04932027571642E-15   0.00000000000000E+00   0.00000000000000E+00   0.00000000000000E+00
     -3.12801810060198E-05  -7.58474466909063E-20   2.16698438402131E-04   1.85418257396111E-04  -1.60060565830665E-15
      0.00000000000000E+00   0.00000000000000E+00   0.00000000000000E+00   1.38576507991117E-05  -1.53701714700126E-19
      2.42594656300325E-06   1.62835973621148E-05  -3.17063146730602E-15   0.00000000000000E+00   0.00000000000000E+00
      0.00000000000000E+00   2.99644475546651E-06  -1.53724231257415E-19  -3.00983200567509E-07   2.69546155489885E-06
     -3.17648410335335E-15   0.00000000000000E+00   0.00000000000000E+00   0.00000000000000E+00   1.30532672165794E-06
     -1.53719966577635E-19   1.92915802649339E-07   1.49824252430712E-06  -3.17745421195260E-15   0.00000000000000E+00
      0.00000000000000E+00   0.00000000000000E+00   7.49368741078987E-07  -1.89234524741537E-19   1.02776283130033E-06
      1.77713157237913E-06  -3.17781253527279E-15   0.00000000000000E+00   0.00000000000000E+00   0.00000000000000E+00
      5.01343487625153E-07  -1.53115575197206E-19   1.61541239632434E-06   2.11675588394934E-06  -3.17815255355827E-15
      2.00000000000000E-13
      0.00000000000000E+00   0.00000000000000E+00   0.00000000000000E+00  -7.73058334546180E-08  -1.53135714461250E-19
     -7.28485960175342E-07  -8.05791793630113E-07  -3.17904068557360E-15   2.00000000000000E+02   2.00000000000000E+02
      0.00000000000000E+00  -1.91621271755353E-05   1.83346694881130E-05   1.48504410509843E-13  -8.27457538917858E-07
      1.68180673118875E-14   0.00000000000000E+00   0.00000000000000E+00   0.00000000000000E+00  -1.00762495925371E-07
     -1.53720632166902E-19   1.62030391771237E-07   6.12678958457125E-08  -3.20736357143137E-15   0.00000000000000E+00
      0.00000000000000E+00   0.00000000000000E+00  -4.63364960719256E-08  -1.62415479444819E-11  -2.75395942890801E-06
     -2.80031216652788E-06   7.04904024494011E-15   0.00000000000000E+00   0.00000000000000E+00   0.00000000000000E+00
     -4.44260373385229E-06  -7.72689413523908E-20   4.80069327558257E-05   4.35643290219733E-05  -1.59624923887371E-15
      0.00000000000000E+00   0.00000000000000E+00   0.00000000000000E+00  -7.06652478246982E-07  -1.53935467141422E-19
     -2.54478678128698E-05  -2.61545202911169E-05  -3.17324690941551E-15   0.00000000000000E+00   0.00000000000000E+00
      0.00000000000000E+00  -1.56756572134904E-07  -1.53779769755145E-19  -6.76654931585784E-06  -6.92330588799290E-06
     -3.17717643160413E-15   0.00000000000000E+00   0.00000000000000E+00   0.00000000000000E+00  -7.47829996363025E-08
     -1.53747708302068E-19  -2.98579753430335E-06  -3.06058053393981E-06  -3.17776026901037E-15   0.00000000000000E+00
      0.00000000000000E+00   0.00000000000000E+00  -6.55849445692520E-08  -1.89259026449004E-19  -1.78495486234129E-06
     -1.85053980691073E-06  -3.17799758874835E-15   0.00000000000000E+00   0.00000000000000E+00   0.00000000000000E+00
     -6.61061851254898E-08  -1.53139408844798E-19  -1.13698271363155E-06  -1.20308889875720E-06  -3.17827286217062E-15
      3.00000000000000E-13
      0.00000000000000E+00   0.00000000000000E+00   0.00000000000000E+00   7.54113925727123E-09  -1.53133686686550E-19
     -4.57420408190131E-07  -4.49879268933013E-07  -3.17908567330453E-15   2.00000000000000E+02   2.00000000000000E+02
      0.00000000000000E+00  -6.12898139106515E-06   6.12676301426691E-06   1.44234960758116E-13  -2.21823256327929E-09
      1.68180670883400E-14   0.00000000000000E+00   0.00000000000000E+00   0.00000000000000E+00  -6.40632708204804E-10
     -1.53721341832891E-19   1.04154042622747E-07   1.03513409914389E-07  -3.20735321930415E-15   0.00000000000000E+00
      0.00000000000000E+00   0.00000000000000E+00  -2.56716962469667E-09  -1.62536120520988E-11  -1.64195987507048E-06
     -1.64454329830723E-06   7.04887578779562E-15   0.00000000000000E+00   0.00000000000000E+00   0.00000000000000E+00
     -5.55710767557886E-07  -7.74517534374774E-20   2.58522736046253E-05   2.52965628370674E-05  -1.59371959928256E-15
      0.00000000000000E+00   0.00000000000000E+00   0.00000000000000E+00   2.30194917131426E-07  -1.53864607483672E-19
     -1.68273212386549E-05  -1.65971263215236E-05  -3.17490660739486E-15   0.00000000000000E+00   0.00000000000000E+00
      0.00000000000000E+00   8.19560306111691E-08  -1.53755042362739E-19  -3.70620140319567E-06  -3.62424537258466E-06
     -3.17753885297818E-15   0.00000000000000E+00   0.00000000000000E+00   0.00000000000000E+00   3.83178856604106E-08
     -1.53736439583466E-19  -1.56891229905204E-06  -1.53059441339178E-06  -3.17791332711535E-15   0.00000000000000E+00
      0.00000000000000E+00   0.00000000000000E+00   2.23882344805775E-08  -1.89252393305344E-19  -9.44084682149437E-07
     -9.21696447669049E-07  -3.17808975769497E-15   0.00000000000000E+00   0.00000000000000E+00   0.00000000000000E+00
      1.34018904248973E-08  -1.53135588357752E-19  -6.43174782389973E-07  -6.29772891965229E-07  -3.17833583906091E-15
      4.00000000000000E-13
      0.00000000000000E+00   0.00000000000000E+00   0.00000000000000E+00   4.67411276421839E-09  -1.53132411136670E-19
     -2.87977045668264E-07  -2.83302932904199E-07  -3.17911400334289E-15   2.00000000000000E+02   2.00000000000000E+02
      0.00000000000000E+00  -3.34473350574717E-06   3.49542139873405E-06   1.41636626562332E-13   1.50688034623507E-07
      1.68180821554190E-14   0.00000000000000E+00   0.00000000000000E+00   0.00000000000000E+00  -3.42203632142323E-10
     -1.53721702274440E-19   7.60496129114633E-08   7.57074092791672E-08  -3.20734564766045E-15   0.00000000000000E+00
      0.00000000000000E+00   0.00000000000000E+00  -3.01704150562526E-09  -1.62647951022516E-11  -9.96008531507249E-07
     -9.99041837807976E-07   7.04877587865284E-15   0.00000000000000E+00   0.00000000000000E+00   0.00000000000000E+00
     -2.54644374954639E-07  -7.75346134688688E-20   1.56930946908130E-05   1.54384503158583E-05  -1.59217577300700E-15
      0.00000000000000E+00   0.00000000000000E+00   0.00000000000000E+00   1.60313260551488E-07  -1.53814946880913E-19
     -1.07371838876836E-05  -1.05768706271322E-05  -3.17596427671204E-15   0.00000000000000E+00   0.00000000000000E+00
      0.00000000000000E+00   4.25771259928714E-08  -1.53742212658787E-19  -2.10127521930642E-06  -2.05869809331371E-06
     -3.17774471910423E-15   0.00000000000000E+00   0.00000000000000E+00   0.00000000000000E+00   1.85551965349704E-08
     -1.53731024532895E-19  -8.77846349598871E-07  -8.59291153064055E-07  -3.17799925467844E-15   0.00000000000000E+00
      0.00000000000000E+00   0.00000000000000E+00   1.09570460313479E-08  -1.89249174557543E-19  -5.31128315154876E-07
     -5.20171269123718E-07  -3.17814177399998E-15   0.00000000000000E+00   0.00000000000000E+00   0.00000000000000E+00
      7.29544783260719E-09  -1.53133527836385E-19  -3.74765294272714E-07  -3.67469846440260E-07  -3.17837258556676E-15
      5.00000000000000E-13
      0.00000000000000E+00   0.00000000000000E+00   0.00000000000000E+00   2.70566585596224E-09  -1.53131676413543E-19
     -1.90423789046344E-07  -1.87718123190535E-07  -3.17913277485908E-15   2.00000000000000E+02   2.00000000000000E+02
      0.00000000000000E+00  -2.23854769862960E-06   2.39363991047896E-06   1.39777721318171E-13   1.55092351627084E-07
      1.68180976629297E-14   0.00000000000000E+00   0.00000000000000E+00   0.00000000000000E+00  -5.35815649892562E-10
     -1.53722008832425E-19   4.71942518805148E-08   4.66584362304685E-08  -3.20734098083745E-15   0.00000000000000E+00
      0.00000000000000E+00   0.00000000000000E+00  -5.29060165114209E-09  -1.62766405955876E-11  -6.14768601695008E-07
     -6.20075479986746E-07   7.04871386480865E-15   0.00000000000000E+00   0.00000000000000E+00   0.00000000000000E+00
     -1.47803406868067E-07  -7.75819039738595E-20   9.82762426268574E-06   9.67982085581760E-06  -1.59120781107079E-15
      0.00000000000000E+00   0.00000000000000E+00   0.00000000000000E+00   1.01089420533361E-07  -1.53783662774920E-19
     -6.87809286444430E-06  -6.77700344391109E-06  -3.17664195730191E-15   0.00000000000000E+00   0.00000000000000E+00
      0.00000000000000E+00   2.23257908217985E-08  -1.53735542023911E-19  -1.25873668975049E-06  -1.23641089892884E-06
     -3.17786835617845E-15   0.00000000000000E+00   0.00000000000000E+00   0.00000000000000E+00   9.41517346937429E-09
     -1.53728318927610E-19  -5.27983688240742E-07  -5.18568514771521E-07  -3.17805110983877E-15   0.00000000000000E+00
      0.00000000000000E+00   0.00000000000000E+00   5.61033306920475E-09  -1.89247554103105E-19  -3.20573872955515E-07
     -3.14963539886499E-07  -3.17817326945213E-15   0.00000000000000E+00   0.00000000000000E+00   0.00000000000000E+00
      3.94767862194059E-09  -1.53132432009906E-19  -2.30779321643811E-07  -2.26831643022023E-07  -3.17839526819981E-15
      6.00000000000000E-13
      0.00000000000000E+00   0.00000000000000E+00   0.00000000000000E+00   1.69650929579590E-09  -1.53131209501754E-19
     -1.29243537852043E-07  -1.27547028556401E-07  -3.17914552923715E-15   2.00000000000000E+02   2.00000000000000E+02
      0.00000000000000E+00  -1.65841872358210E-06   1.78921708055598E-06   1.38328736038949E-13   1.30798495302612E-07
      1.68181107410549E-14   0.00000000000000E+00   0.00000000000000E+00   0.00000000000000E+00  -4.03580634843206E-10
     -1.53722210371505E-19   2.68088090770761E-08   2.64052284420791E-08  -3.20733833928342E-15   0.00000000000000E+00
      0.00000000000000E+00   0.00000000000000E+00  -6.42566389058904E-09  -1.62885188299606E-11  -3.85740641368960E-07
     -3.92182593778379E-07   7.04867463945902E-15   0.00000000000000E+00   0.00000000000000E+00   0.00000000000000E+00
     -8.95209275952780E-08  -7.76100094706836E-20   6.28562175519090E-06   6.19610082759555E-06  -1.59058822212867E-15
      0.00000000000000E+00   0.00000000000000E+00   0.00000000000000E+00   6.35470293914400E-08  -1.53764043194345E-19
     -4.44683991180753E-06  -4.38329288241625E-06  -3.17708026552598E-15   0.00000000000000E+00   0.00000000000000E+00
      0.00000000000000E+00   1.24700076749299E-08  -1.53731843303871E-19  -7.88527762917438E-07  -7.76057755242662E-07
     -3.17794595772160E-15   0.00000000000000E+00   0.00000000000000E+00   0.00000000000000E+00   5.22540705196218E-09
     -1.53726832505482E-19  -3.34433920877176E-07  -3.29208513825368E-07  -3.17808402890777E-15   0.00000000000000E+00
      0.00000000000000E+00   0.00000000000000E+00   3.14434789276307E-09  -1.89246653737759E-19  -2.02960410780093E-07
     -1.99816062887519E-07  -3.17819325010407E-15   0.00000000000000E+00   0.00000000000000E+00   0.00000000000000E+00
      2.29535414726016E-09  -1.53131796880084E-19  -1.47495068692309E-07  -1.45199714545202E-07  -3.17840978760529E-15
      7.00000000000000E-13
      0.00000000000000E+00   0.00000000000000E+00   0.00000000000000E+00   1.10812229304585E-09  -1.53130897679632E-19
     -8.91699714498589E-08  -8.80618491569661E-08  -3.17915433507725E-15   2.00000000000000E+02   2.00000000000000E+02
      0.00000000000000E+00  -1.30413375388827E-06   1.41112781686588E-06   1.37135157382031E-13   1.06994200112771E-07
      1.68181214387505E-14   0.00000000000000E+00   0.00000000000000E+00   0.00000000000000E+00  -2.53961750322142E-10
     -1.53722328916281E-19   1.40912653023914E-08   1.38373035519155E-08  -3.20733695448566E-15   0.00000000000000E+00
      0.00000000000000E+00   0.00000000000000E+00  -6.67914520349625E-09  -1.62999371838541E-11  -2.46205316748866E-07
     -2.52900761889546E-07   7.04864934185329E-15   0.00000000000000E+00   0.00000000000000E+00   0.00000000000000E+00
     -5.53779494703082E-08  -7.76269860933762E-20   4.09820011050464E-06   4.04282216103426E-06  -1.59018396179700E-15
      0.00000000000000E+00   0.00000000000000E+00   0.00000000000000E+00   4.00542141760898E-08  -1.53751716222835E-19
     -2.91280278198821E-06  -2.87274856781227E-06  -3.17736751845634E-15   0.00000000000000E+00   0.00000000000000E+00
      0.00000000000000E+00   7.31941059348415E-09  -1.53729683731152E-19  -5.12891960443789E-07  -5.05572549850458E-07
     -3.17799651059951E-15   0.00000000000000E+00   0.00000000000000E+00   0.00000000000000E+00   3.08733022595189E-09
     -1.53725957527217E-19  -2.20372107292906E-07  -2.17284777067108E-07  -3.17810575554172E-15   0.00000000000000E+00
      0.00000000000000E+00   0.00000000000000E+00   1.86710633738175E-09  -1.89246120188772E-19  -1.33277679472707E-07
     -1.31410573135514E-07  -3.17820639017184E-15   0.00000000000000E+00   0.00000000000000E+00   0.00000000000000E+00
      1.39376581520774E-09  -1.53131409733067E-19  -9.70683516803514E-08  -9.56745858652968E-08  -3.17841935447452E-15
      8.00000000000000E-13
      0.00000000000000E+00   0.00000000000000E+00   0.00000000000000E+00   7.37634872477307E-10  -1.53130685832471E-19
     -6.24031877962255E-08  -6.16655529239013E-08  -3.17916050127361E-15   2.00000000000000E+02   2.00000000000000E+02
      0.00000000000000E+00  -1.06687644543348E-06   1.15612493278255E-06   1.36114708794573E-13   8.92486234637781E-08
      1.68181303618886E-14   0.00000000000000E+00   0.00000000000000E+00   0.00000000000000E+00  -1.48078168059145E-10
     -1.53722393153023E-19   6.57730989991616E-09   6.42923173170330E-09  -3.20733631046878E-15   0.00000000000000E+00
      0.00000000000000E+00   0.00000000000000E+00  -6.45311293697891E-09  -1.63106724026364E-11  -1.60152415104458E-07
     -1.66621838713840E-07   7.04863267193001E-15   0.00000000000000E+00   0.00000000000000E+00   0.00000000000000E+00
     -3.47979912907217E-08  -7.76373148789158E-20   2.72508538643754E-06   2.69028739514674E-06  -1.58991495553029E-15
      0.00000000000000E+00   0.00000000000000E+00   0.00000000000000E+00   2.53848135370916E-08  -1.53743935054860E-19
     -1.94013264773630E-06  -1.91474783419936E-06  -3.17755897073749E-15   0.00000000000000E+00   0.00000000000000E+00
      0.00000000000000E+00   4.46363940657262E-09  -1.53728371196024E-19  -3.44999443179020E-07  -3.40535803772601E-07
     -3.17803055970356E-15   0.00000000000000E+00   0.00000000000000E+00   0.00000000000000E+00   1.90226658162968E-09
     -1.53725418313815E-19  -1.50209028643360E-07  -1.48306762061885E-07  -3.17812058433178E-15   0.00000000000000E+00
      0.00000000000000E+00   0.00000000000000E+00   1.14988462568135E-09  -1.89245790180328E-19  -9.04255730021733E-08
     -8.92756883766812E-08  -3.17821531672691E-15   0.00000000000000E+00   0.00000000000000E+00   0.00000000000000E+00
      8.68932332593971E-10  -1.53131165136035E-19  -6.56807025416981E-08  -6.48117702092572E-08  -3.17842583504613E-15
      9.00000000000000E-13
      0.00000000000000E+00   0.00000000000000E+00   0.00000000000000E+00   4.95801141394078E-10  -1.53130539899583E-19
     -4.43541504916399E-08  -4.38583493503990E-08  -3.17916488673949E-15   2.00000000000000E+02   2.00000000000000E+02
      0.00000000000000E+00  -8.98211513767629E-07   9.75340646793974E-07   1.35220442902582E-13   7.71292682467883E-08
      1.68181380730910E-14   0.00000000000000E+00   0.00000000000000E+00   0.00000000000000E+00  -8.24530811384171E-11
     -1.53722425775258E-19   2.26934249250780E-09   2.18688941121566E-09  -3.20733609066620E-15   0.00000000000000E+00
      0.00000000000000E+00   0.00000000000000E+00  -6.00831075577878E-09  -1.63206676856597E-11  -1.06456849075290E-07
     -1.12481480498754E-07   7.04862141598161E-15   0.00000000000000E+00   0.00000000000000E+00   0.00000000000000E+00
     -2.21665305190317E-08  -7.76436051074762E-20   1.85099364189208E-06   1.82882711137297E-06  -1.58973209578083E-15
      0.00000000000000E+00   0.00000000000000E+00   0.00000000000000E+00   1.62130517102539E-08  -1.53738989689358E-19
     -1.31879442468079E-06  -1.30258137297069E-06  -3.17768920598123E-15   0.00000000000000E+00   0.00000000000000E+00
      0.00000000000000E+00   2.80474475030768E-09  -1.53727548327997E-19  -2.39596118934197E-07  -2.36791374184043E-07
     -3.17805423429469E-15   0.00000000000000E+00   0.00000000000000E+00   0.00000000000000E+00   1.20657603824099E-09
     -1.53725073436612E-19  -1.05746837240882E-07  -1.04540261202795E-07  -3.17813103644164E-15   0.00000000000000E+00
      0.00000000000000E+00   0.00000000000000E+00   7.25999318292425E-10  -1.89245580994719E-19  -6.33975007943118E-08
     -6.26715014762086E-08  -3.17822158284616E-15   0.00000000000000E+00   0.00000000000000E+00   0.00000000000000E+00
      5.51738030182580E-10  -1.53131007994866E-19  -4.57706674722038E-08  -4.52189294421743E-08  -3.17843035632231E-15
      1.00000000000000E-12
      0.00000000000000E+00   0.00000000000000E+00   0.00000000000000E+00   3.35391679332595E-10  -1.53130438704116E-19
     -3.21104477571632E-08  -3.17750560779837E-08  -3.17916806386869E-15   2.00000000000000E+02   2.00000000000000E+02
      0.00000000000000E+00  -7.73159063754870E-07   8.42256402193909E-07   1.34419917861627E-13   6.90974728589567E-08
      1.68181449811138E-14   0.00000000000000E+00   0.00000000000000E+00   0.00000000000000E+00  -4.41052792788173E-11
     -1.53722439302333E-19  -1.46863635925906E-10  -1.90968915358446E-10  -3.20733610863372E-15   0.00000000000000E+00
      0.00000000000000E+00   0.00000000000000E+00  -5.49004869911762E-09  -1.63299492547494E-11  -7.25378557381068E-08
     -7.80442343864791E-08   7.04861360379394E-15   0.00000000000000E+00   0.00000000000000E+00   0.00000000000000E+00
     -1.43079497952906E-08  -7.76474126206918E-20   1.28706537443501E-06   1.27275742463964E-06  -1.58960484342377E-15
      0.00000000000000E+00   0.00000000000000E+00   0.00000000000000E+00   1.04571501319986E-08  -1.53735819731132E-19
     -9.18045307145943E-07  -9.07588157014098E-07  -3.17777994163247E-15   0.00000000000000E+00   0.00000000000000E+00
      0.00000000000000E+00   1.80578700311026E-09  -1.53727017881574E-19  -1.71772934813255E-07  -1.69967147810298E-07
     -3.17807122641238E-15   0.00000000000000E+00   0.00000000000000E+00   0.00000000000000E+00   7.82141527331390E-10
     -1.53724848367509E-19  -7.69361743934783E-08  -7.61540328663007E-08  -3.17813864990666E-15   0.00000000000000E+00
      0.00000000000000E+00   0.00000000000000E+00   4.67313887355898E-10  -1.89245444896661E-19  -4.60130698399973E-08
     -4.55457559528307E-08  -3.17822613637836E-15   0.00000000000000E+00   0.00000000000000E+00   0.00000000000000E+00
      3.55647184957694E-10  -1.53130904606990E-19  -3.29451916205791E-08  -3.25895444357746E-08  -3.17843361465175E-15
      1.10000000000000E-12
      0.00000000000000E+00   0.00000000000000E+00   0.00000000000000E+00   2.28283639685767E-10  -1.53130368012431E-19
     -2.37591533704355E-08  -2.35308697309029E-08  -3.17917041657377E-15   2.00000000000000E+02   2.00000000000000E+02
      0.00000000000000E+00  -6.77396375022087E-07   7.41174785836781E-07   1.33692905454470E-13   6.37785445075996E-08
      1.68181513572439E-14   0.00000000000000E+00   0.00000000000000E+00   0.00000000000000E+00  -2.23994525545096E-11
     -1.53722443816224E-19  -1.47152489318550E-09  -1.49392434589373E-09  -3.20733625688386E-15   0.00000000000000E+00
      0.00000000000000E+00   0.00000000000000E+00  -4.97296256287352E-09  -1.63385784764347E-11  -5.08194426869221E-08
     -5.58087438282721E-08   7.04860801525571E-15   0.00000000000000E+00   0.00000000000000E+00   0.00000000000000E+00
     -9.36329977685417E-09  -7.76496809539401E-20   9.18170944469359E-07   9.08807644692427E-07  -1.58951398642462E-15
      0.00000000000000E+00   0.00000000000000E+00   0.00000000000000E+00   6.82494936222217E-09  -1.53733766592136E-19
     -6.56522429090912E-07  -6.49697479728844E-07  -3.17784488802481E-15   0.00000000000000E+00   0.00000000000000E+00
      0.00000000000000E+00   1.18735001558299E-09  -1.53726669324940E-19  -1.27191631735370E-07  -1.26004281719941E-07
     -3.17808382220558E-15   0.00000000000000E+00   0.00000000000000E+00   0.00000000000000E+00   5.16484722445574E-10
     -1.53724697707542E-19  -5.79123758279111E-08  -5.73958911056192E-08  -3.17814438754095E-15   0.00000000000000E+00
      0.00000000000000E+00   0.00000000000000E+00   3.06095588370949E-10  -1.89245354535507E-19  -3.46330022067053E-08
     -3.43269066185236E-08  -3.17822956801626E-15   0.00000000000000E+00   0.00000000000000E+00   0.00000000000000E+00
      2.32608094253762E-10  -1.53130835346886E-19  -2.45607002906783E-08  -2.43280921965776E-08  -3.17843604682981E-15
      1.20000000000000E-12
      0.00000000000000E+00   0.00000000000000E+00   0.00000000000000E+00   1.56448225463509E-10  -1.53130318178706E-19
     -1.80260990617646E-08  -1.78696508364542E-08  -3.17917220315281E-15   2.00000000000000E+02   2.00000000000000E+02
      0.00000000000000E+00  -6.02083778472526E-07   6.62267953376482E-07   1.33025372512339E-13   6.01843079293288E-08
      1.68181573739503E-14   0.00000000000000E+00   0.00000000000000E+00   0.00000000000000E+00  -1.03996083842202E-11
     -1.53722442894280E-19  -2.17454606007027E-09  -2.18494566860822E-09  -3.20733647422515E-15   0.00000000000000E+00
      0.00000000000000E+00   0.00000000000000E+00  -4.49179610689398E-09  -1.63466271875524E-11  -3.66984271209516E-08
     -4.12065698550331E-08   7.04860388707834E-15   0.00000000000000E+00   0.00000000000000E+00   0.00000000000000E+00
     -6.21967824263649E-09  -7.76509879492533E-20   6.73215887619402E-07   6.66996209376688E-07  -1.58944731091833E-15
      0.00000000000000E+00   0.00000000000000E+00   0.00000000000000E+00   4.51693141472201E-09  -1.53732419847728E-19
     -4.83471127812593E-07  -4.78954196398024E-07  -3.17789275995177E-15   0.00000000000000E+00   0.00000000000000E+00
      0.00000000000000E+00   7.96175189759008E-10  -1.53726435644632E-19  -9.73020256335458E-08  -9.65058504439405E-08
     -3.17809346812665E-15   0.00000000000000E+00   0.00000000000000E+00   0.00000000000000E+00   3.47184922739257E-10
     -1.53724595588434E-19  -4.51229113648191E-08  -4.47757264422336E-08  -3.17814886314597E-15   0.00000000000000E+00
      0.00000000000000E+00   0.00000000000000E+00   2.04073123789364E-10  -1.89245293232373E-19  -2.70495064600215E-08
     -2.68454333364214E-08  -3.17823225149956E-15   0.00000000000000E+00   0.00000000000000E+00   0.00000000000000E+00
      1.54532906802841E-10  -1.53130788010072E-19  -1.89926772809042E-08  -1.88381443742545E-08  -3.17843793000836E-15
      1.30000000000000E-12
      0.00000000000000E+00   0.00000000000000E+00   0.00000000000000E+00   1.08128681562977E-10  -1.53130282642331E-19
     -1.40585776545492E-08  -1.39504489731393E-08  -3.17917359780848E-15   2.00000000000000E+02   2.00000000000000E+02
      0.00000000000000E+00  -5.41481818995286E-07   5.99145559184569E-07   1.32406401543281E-13   5.76638725956851E-08
      1.68181631386132E-14   0.00000000000000E+00   0.00000000000000E+00   0.00000000000000E+00  -3.91870995866208E-12
     -1.53722439273835E-19  -2.52679077936834E-09  -2.53070948948073E-09  -3.20733672613325E-15   0.00000000000000E+00
      0.00000000000000E+00   0.00000000000000E+00  -4.05976671325308E-09  -1.63541659107660E-11  -2.73556946470709E-08
     -3.14318155262347E-08   7.04860073654895E-15   0.00000000000000E+00   0.00000000000000E+00   0.00000000000000E+00
     -4.20051827659386E-09  -7.76516911051908E-20   5.07840983769498E-07   5.03640465492826E-07  -1.58939697131335E-15
      0.00000000000000E+00   0.00000000000000E+00   0.00000000000000E+00   3.03817433552938E-09  -1.53731524564165E-19
     -3.67099366060459E-07  -3.64061191725083E-07  -3.17792914247896E-15   0.00000000000000E+00   0.00000000000000E+00
      0.00000000000000E+00   5.44384575824740E-10  -1.53726274954491E-19  -7.68658078704503E-08  -7.63214232947793E-08
     -3.17810109558237E-15   0.00000000000000E+00   0.00000000000000E+00   0.00000000000000E+00   2.37744890721449E-10
     -1.53724524640992E-19  -3.63626134979051E-08  -3.61248686073373E-08  -3.17815247365511E-15   0.00000000000000E+00
      0.00000000000000E+00   0.00000000000000E+00   1.38716586356656E-10  -1.89245250653499E-19  -2.18975959884599E-08
     -2.17588794022925E-08  -3.17823442632177E-15   0.00000000000000E+00   0.00000000000000E+00   0.00000000000000E+00
      1.04476023501993E-10  -1.53130754931428E-19  -1.52294770666505E-08  -1.51250010433017E-08  -3.17843944186884E-15
      1.40000000000000E-12